
         
 *******************************************************************************
 *                                                                             *
 *                               CRYSTAL17                                     *
 *                      public : 1.0.2 - March 1st, 2018                       *
 *                       HTTP://WWW.CRYSTAL.UNITO.IT                           *
 *                                                                             *
 *                              MAIN AUTHORS                                   *
 *                                                                             *
 *  R. DOVESI(1,11), V.R. SAUNDERS(2), C. ROETTI(1,11), R. ORLANDO(1,11),      *
 *  C.M. ZICOVICH-WILSON(1,3), F. PASCALE(4), B. CIVALLERI(1,11),              *
 *  K. DOLL(5), N.M. HARRISON(2,6), I.J. BUSH(7), Ph. D'ARCO(8),               *
 *  M. LLUNELL(9), M. CAUSA'(10), Y. NOEL(8), L. MASCHIO(1,11), A. ERBA(1,11)  *
 *  M. RE'RAT(14), S. CASASSA(1,11)                                            *
 *                                                                             *
 *        CONTRIBUTIONS TO THE CODE HAVE ALSO BEEN GIVEN BY                    *
 *                                                                             *
 *  M. FERRABONE(1,11), M. DE LA PIERRE(1,11), M. FERRERO(1,11),               *
 *  J. BAIMA(1,11), E. ALBANESE(1,11), M.F. PEINTINGER(12), R. BAST(13),       *
 *  B. KIRTMAN(15), V. LACIVITA(1,11), R. DEMICHELIS(1,16)                     *
 *  G. BRANDEBURG(17), S. SALUSTRO(1,11), G. SANSONE(1,11)                     *
 *  M.T. RUGGIERO(18)                                                          *
 *                                                                             *
 * (1) THEORETICAL CHEMISTRY GROUP - UNIVERSITA' DI TORINO - TORINO (ITALY)    *
 * (2) COMPUTATIONAL SCIENCE & ENGINEERING DEPARTMENT - STFC DARESBURY (UK)    *
 * (3) UNIVERSIDAD AUTONOMA DEL ESTADO DE MORELOS - CUERNAVACA (MEXICO)        *
 * (4) UNIVERSITE' DE LORRAINE - NANCY (FRANCE)                                *
 * (5) UNIVERSITAET STUTTGART- STUTTGART (GERMANY)                             *
 * (6) IMPERIAL COLLEGE - LONDON (UK)                                          *
 * (7) OXFORD E-RESEARCH CENTRE - OXFORD (UK)                                  *
 * (8) UPMC - SORBONNE UNIVERSITES - PARIS (FRANCE)                            *
 * (9) UNIVERSIDAD DE BARCELONA - BARCELONA (SPAIN)                            *
 *(10) UNIVERSITA' DI NAPOLI "FEDERICO II" - NAPOLI (ITALY)                    *
 *(11) NIS - NANOSTRUCTURED INTERFACES AND SURFACES - TORINO (ITALY)           *
 *(12) MPI FUER CHEMISCHE ENERGIEKONVERSION - MUELHEIM AN DER RUHR (GERMANY)   *
 *(13) UNIVERSITY OF TROMSO - TROMSO (NORWAY)                                  *
 *(14) UNIVERSITE' DE PAU ET DES PAYS DE L'ADOUR - PAU (FRANCE)                *
 *(15) UNIVERSITY OF CALIFORNIA SANTA BARBARA - SANTA BARBARA (USA)            *
 *(16) CURTIN UNIVERSITY - PERTH (AUSTRALIA)                                   *
 *(17) UNIVERSITY COLLEGE LONDON - LONDON (UK)                                 *
 *(18) CAMBRIDGE UNIVERSITY - CAMBRIDGE (UK)                                   *
 *                                                                             *
 *******************************************************************************
 EEEEEEEEEE STARTING  DATE 30 04 2019 TIME 23:57:21.2

 *******************************************************************************
 Crystal calc                                                                    
 CRYSTAL - PROPERTIES - TYPE OF CALCULATION :  RESTRICTED CLOSED SHELL
 *******************************************************************************
 HARTREE-FOCK HAMILTONIAN

 DIRECT LATTICE VECTOR COMPONENTS (ANGSTROM)
         0.00000    1.94218    1.94218
         1.94218    0.00000    1.94218
         1.94218    1.94218    0.00000

 LATTICE PARAMETERS  (ANGSTROM AND DEGREES) - PRIMITIVE CELL
       A          B          C         ALPHA      BETA     GAMMA        VOLUME
    2.74666    2.74666    2.74666     60.0000   60.0000   60.0000      14.65209
 *******************************************************************************
 N. OF ATOMS PER CELL         2 COULOMB OVERLAP TOL          (T1) 10**   -6
 NUMBER OF SHELLS             5 COULOMB PENETRATION TOL      (T2) 10**   -6
 NUMBER OF AO                14 EXCHANGE OVERLAP TOL         (T3) 10**   -6
 N. OF ELECTRONS PER CELL    20 EXCHANGE PSEUDO OVP (F(G))   (T4) 10**   -6
 CORE ELECTRONS PER CELL     12 EXCHANGE PSEUDO OVP (P(G))   (T5) 10**  -12
 N. OF SYMMETRY OPERATORS   192 POLE ORDER IN MONO ZONE                   4
 *******************************************************************************
   ATOM N.AT.  SHELL    X(A)      Y(A)      Z(A)      EXAD       N.ELECT.
 *******************************************************************************
    1    8 O     2     1.942     1.942     1.942   3.804E-01       8.797
    2   12 MG    3     0.000     0.000     0.000   1.524E-01      11.203
 *******************************************************************************
 DE(K)                   0.000E+00  ENERGY LEVEL SHIFTING        0.00000
 TOTAL ENERGY -2.7125962068840E+02  CONVERGENCE ON ENER       -1.798E-10
 KIN. ENERGY   2.6730661917387E+02  VIR. COEFF.           9.92660139E-01
 N. OF SCF CYCLES                3  FERMI ENERGY              -0.147E+00
 WEIGHT OF F(I) IN F(I+1)      30
 SHRINK. FACT.(MONKH.)     8  8  8  SHRINKING FACTOR(GILAT NET)        8
 NUMBER OF K POINTS IN THE IBZ  29  CELL VOLUME (A.U.)        126.076062
 *******************************************************************************

 GCALCO - MAX INDICES DIRECT LATTICE VECTOR    14    14    14
 NO.OF VECTORS CREATED 6999 STARS  105 RMAX    54.93040 BOHR
 TTTTTTTTTTTTTTTTTTTTTTTTTTTTTT gordsh1     TELAPSE        0.02 TCPU        0.02

 MATRIX SIZE: P(G)   19338, F(G)    3404, P(G) IRR     790, F(G) IRR     398
 MAX G-VECTOR INDEX FOR 1- AND 2-ELECTRON INTEGRALS 417


 CAPPA:IS1  8;IS2  8;IS3  8; K PTS MONK NET  29; SYMMOPS:K SPACE 192;G SPACE 192

 WARNING **** F90MAIN3 **** BF SYMMETRY ADAPTED-INFO MODIFIED BY BAND-CALL NEWK


 *******************************************************************************
 *                                                                             *
 *  BAND STRUCTURE                                                             *
 *  CRYSTAL RUN                                                                *
 *  FROM BAND   1 TO BAND  14                                                  *
 *  TOTAL OF  30 K-POINTS ALONG THE PATH                                       *
 *                                                                             *
 *******************************************************************************

 LINE  1 ( 0.00 0.00 0.00: 0.50 0.00 0.50) IN TERMS OF PRIMITIVE LATTICE VECTORS
   7 POINTS - SHRINKING_FACTOR  48
 CARTESIAN COORD. ( 0.000 0.000 0.000):( 0.000 0.856 0.000) STEP  0.1427


 LINE  2 ( 0.50 0.00 0.50: 0.62 0.25 0.62) IN TERMS OF PRIMITIVE LATTICE VECTORS
   2 POINTS - SHRINKING_FACTOR  16
 CARTESIAN COORD. ( 0.000 0.856 0.000):( 0.214 0.856 0.214) STEP  0.1513


 LINE  3 ( 0.38 0.38 0.75: 0.00 0.00 0.00) IN TERMS OF PRIMITIVE LATTICE VECTORS
   8 POINTS - SHRINKING_FACTOR  56
 CARTESIAN COORD. ( 0.642 0.642 0.000):( 0.000 0.000 0.000) STEP  0.1297


 LINE  4 ( 0.00 0.00 0.00: 0.50 0.50 0.50) IN TERMS OF PRIMITIVE LATTICE VECTORS
   6 POINTS - SHRINKING_FACTOR  48
 CARTESIAN COORD. ( 0.000 0.000 0.000):( 0.428 0.428 0.428) STEP  0.1235


 LINE  5 ( 0.50 0.50 0.50: 0.50 0.25 0.75) IN TERMS OF PRIMITIVE LATTICE VECTORS
   5 POINTS - SHRINKING_FACTOR  40
 CARTESIAN COORD. ( 0.428 0.428 0.428):( 0.428 0.856 0.000) STEP  0.1211


 LINE  6 ( 0.50 0.25 0.75: 0.50 0.00 0.50) IN TERMS OF PRIMITIVE LATTICE VECTORS
   3 POINTS - SHRINKING_FACTOR  24
 CARTESIAN COORD. ( 0.428 0.856 0.000):( 0.000 0.856 0.000) STEP  0.1427


   98 DATA WRITTEN ON UNIT 25 WITH THE FOLLOWING HEADER :
 -%-0BAND      0    0    0    4    0    4

   28 DATA WRITTEN ON UNIT 25 WITH THE FOLLOWING HEADER :
 -%-0BAND      4    0    4    5    2    5

  112 DATA WRITTEN ON UNIT 25 WITH THE FOLLOWING HEADER :
 -%-0BAND      3    3    6    0    0    0

   84 DATA WRITTEN ON UNIT 25 WITH THE FOLLOWING HEADER :
 -%-0BAND      0    0    0    4    4    4

   70 DATA WRITTEN ON UNIT 25 WITH THE FOLLOWING HEADER :
 -%-0BAND      4    4    4    4    2    6

   42 DATA WRITTEN ON UNIT 25 WITH THE FOLLOWING HEADER :
 -%-0BAND      4    2    6    4    0    4

 ENERGY RANGE (A.U.)  -48.41445 -   1.42233 EFERMI  -0.14702
     |*------------------------------------------------------------------*-------------------------------------*---*-*-*-*-*|
     |*                                                                  *                                     *   * * * * *|
     |*                                                                  *                                     *   * * * ***|
     |*                                                                  *                                     *   * * * ***|
     |*                                                                  *                                     *   * * * ***|
     |*                                                                  *                                     *   * * * ***|
     |*------------------------------------------------------------------*-------------------------------------*---*-*-*-***|
     |*                                                                  *                                     *   * * * ***|
     |*------------------------------------------------------------------*-------------------------------------*---*-*-*--*-|
     |*------------------------------------------------------------------*-------------------------------------*---*-*-*--*-|
     |*                                                                  *                                     *   * * *  * |
     |*                                                                  *                                     *   * * *  * |
     |*                                                                  *                                     *   * * * ** |
     |*                                                                  *                                     *   * * * ***|
     |*                                                                  *                                     *   * * * * *|
     |*                                                                  *                                     *   * * * * *|
     |*------------------------------------------------------------------*-------------------------------------*---*-*-*-*-*|
     |*                                                                  *                                     *   * * * * *|
     |*                                                                  *                                     *   * * * * *|
     |*                                                                  *                                     *   * * * ***|
     |*                                                                  *                                     *   * * * ** |
     |*                                                                  *                                     *   * * * ** |
     |*------------------------------------------------------------------*-------------------------------------*---*-*-*-**-|
     |*                                                                  *                                     *   * * * ** |
     |*                                                                  *                                     *   * * * ** |
     |*                                                                  *                                     *   * * *  * |
     |*                                                                  *                                     *   * * *  * |
     |*------------------------------------------------------------------*-------------------------------------*---*-*-*--*-|
     |*                                                                  *                                     *   * * *  * |
     |*                                                                  *                                     *   * * * ** |
     |*------------------------------------------------------------------*-------------------------------------*---*-*-*-***|

 CAPPA:IS1  8;IS2  8;IS3  8; K PTS MONK NET  29; SYMMOPS:K SPACE 192;G SPACE 192

 TTTTTTTTTTTTTTTTTTTTTTTTTTTTTT BAND        TELAPSE        0.04 TCPU        0.04

 CAPPA:IS1  6;IS2  6;IS3  6; K PTS MONK NET  16; SYMMOPS:K SPACE 192;G SPACE 192

 *******************************************************************************
 RESTART WITH NEW K POINTS NET
 *******************************************************************************
 POINTS IN THE IBZ                  16 POINTS(GILAT NET)                16
 SHRINK FACTORS(MONK.)         6  6  6 SHRINK FACTOR(GILAT)              6
 *******************************************************************************
 *** K POINTS COORDINATES (OBLIQUE COORDINATES IN UNITS OF IS =  6)
   1-R(  0  0  0)   2-C(  1  0  0)   3-C(  2  0  0)   4-R(  3  0  0)
   5-C(  1  1  0)   6-C(  2  1  0)   7-C(  3  1  0)   8-C(  4  1  0)
   9-C(  5  1  0)  10-C(  2  2  0)  11-C(  3  2  0)  12-C(  4  2  0)
  13-R(  3  3  0)  14-C(  3  2  1)  15-C(  4  2  1)  16-C(  4  3  1)

 FERMI ENERGY AND DENSITY MATRIX CALCULATION ON COMPUTED EIGENVECTORS
 DENSITY MATRIX AT SCF CYCLE (  3+1)

 INSULATING STATE
 TOP OF VALENCE BANDS -    BAND     10; K    9; EIG -1.4724282E-01 AU
 TOP OF VALENCE BANDS -    BAND     10; K    1; EIG -1.5272950E-01 AU
 BOTTOM OF VIRTUAL BANDS - BAND     11; K    1; EIG  4.9528686E-01 AU
 INDIRECT ENERGY BAND GAP:  17.4841 eV

 CORE DENSITY MATRIX CALCULATION
 TTTTTTTTTTTTTTTTTTTTTTTTTTTTTT NEWK        TELAPSE        0.04 TCPU        0.04
 ###############################################################################

 TOTAL AND PROJECTED DENSITY OF STATES - FOURIER LEGENDRE METHOD
 FROM BAND    1 TO BAND   14 ENERGY RANGE -0.48414E+02  0.14223E+01

 ###############################################################################

 NUMBER OF LEGENDRE POLYNOMIALS              16
 NUMBER OF SYMMETRIZED PWS FOR EXPANSION     16
 NUMBER OF K POINTS OF SECONDARY NET         16
 NUMBER OF PROJECTIONS                        2
 NUMBER OF ENERGY POINTS                     98

 *** PROJECTION   1 ATOMIC ORBITALS     1   2   3   4   5

 *** PROJECTION   2 ATOMIC ORBITALS     6   7   8   9  10  11  12  13  14

 BAND     INTEGRATED DOSS PER PROJECTION AND TOTAL
           1         2         T
   1   0.00001   1.99999   2.00000
   2   2.00099  -0.00099   2.00000
   3  -0.00094   2.00094   2.00000
   4   0.00183   1.99817   2.00000
   5   0.00002   1.99998   2.00000
   6   0.00020   1.99980   2.00000
   7   1.80364   0.19636   2.00000
   8   1.44179   0.55821   2.00000
   9   1.70195   0.29805   2.00000
  10   1.84780   0.15220   2.00000
  11   0.38539   1.61461   2.00000
  12   0.34938   1.65062   2.00000
  13   0.30834   1.69166   2.00000
  14   0.15958   1.84042   2.00000

 *** INTEGRATED DENSITIES IN THE ENERGY INTERVAL PER PROJECTION AND TOTAL
       1         2         T
   10.00000   18.00000   28.00000

 *** ENERGY  PROJECTED DENSITY OF STATES - FULL SCALE =    11.91320 AU

 -47.91104  1                  2                                                                                                    
 -47.40764  2                                                                                                                       
 -46.90424  2                                                                                                                       
 -46.40083  2                                                                                                                       
 -45.89743  2                                                                                                                       
 -45.39403  2                                                                                                                       
 -44.89063  2                                                                                                                       
 -44.38723  2                                                                                                                       
 -43.88383  2                                                                                                                       
 -43.38042  2                                                                                                                       
 -42.87702  2                                                                                                                       
 -42.37362  2                                                                                                                       
 -41.87022  2                                                                                                                       
 -41.36682  2                                                                                                                       
 -40.86342  2                                                                                                                       
 -40.36001  2                                                                                                                       
 -39.85661  2                                                                                                                       
 -39.35321  2                                                                                                                       
 -38.84981  2                                                                                                                       
 -38.34641  2                                                                                                                       
 -37.84301  2                                                                                                                       
 -37.33960  2                                                                                                                       
 -36.83620  2                                                                                                                       
 -36.33280  2                                                                                                                       
 -35.82940  2                                                                                                                       
 -35.32600  2                                                                                                                       
 -34.82259  2                                                                                                                       
 -34.31919  2                                                                                                                       
 -33.81579  2                                                                                                                       
 -33.31239  2                                                                                                                       
 -32.80899  2                                                                                                                       
 -32.30559  2                                                                                                                       
 -31.80218  2                                                                                                                       
 -31.29878  2                                                                                                                       
 -30.79538  2                                                                                                                       
 -30.29198  2                                                                                                                       
 -29.78858  2                                                                                                                       
 -29.28518  2                                                                                                                       
 -28.78177  2                                                                                                                       
 -28.27837  2                                                                                                                       
 -27.77497  2                                                                                                                       
 -27.27157  2                                                                                                                       
 -26.76817  2                                                                                                                       
 -26.26477  2                                                                                                                       
 -25.76136  2                                                                                                                       
 -25.25796  2                                                                                                                       
 -24.75456  2                                                                                                                       
 -24.25116  2                                                                                                                       
 -23.74776  2                                                                                                                       
 -23.24436  2                                                                                                                       
 -22.74095  2                                                                                                                       
 -22.23755  2                                                                                                                       
 -21.73415  2                                                                                                                       
 -21.23075  2                                                                                                                       
 -20.72735  2                                                                                                                       
 -20.22394  2                  1                                                                                                    
 -19.72054  2                  1                                                                                                    
 -19.21714  2                                                                                                                       
 -18.71374  2                                                                                                                       
 -18.21034  2                                                                                                                       
 -17.70694  2                                                                                                                       
 -17.20353  2                                                                                                                       
 -16.70013  2                                                                                                                       
 -16.19673  2                                                                                                                       
 -15.69333  2                                                                                                                       
 -15.18993  2                                                                                                                       
 -14.68653  2                                                                                                                       
 -14.18312  2                                                                                                                       
 -13.67972  2                                                                                                                       
 -13.17632  2                                                                                                                       
 -12.67292  2                                                                                                                       
 -12.16952  2                                                                                                                       
 -11.66612  2                                                                                                                       
 -11.16271  2                                                                                                                       
 -10.65931  2                                                                                                                       
 -10.15591  2                                                                                                                       
  -9.65251  2                                                                                                                       
  -9.14911  2                                                                                                                       
  -8.64571  2                                                                                                                       
  -8.14230  2                                                                                                                       
  -7.63890  2                                                                                                                       
  -7.13550  2                                                                                                                       
  -6.63210  2                                                                                                                       
  -6.12870  2                                                                                                                       
  -5.62529  2                                                                                                                       
  -5.12189  2                                                                                                                       
  -4.61849  2                                                                                                                       
  -4.11509  2                                                                                                                       
  -3.61169  1                  2                                                                                                    
  -3.10829  1                  2                                                                                                    
  -2.60488  2                                                                                                                       
  -2.10148  1                                                                                                                      2
  -1.59808  1                                                                                                                      2
  -1.09468  |                 2                                                                                                   1 
  -0.59128  |                       2                                                                      1                        
  -0.08788  |                       2                                                                      1                        
   0.41553  |       1                        2                                                                                      

 *** ENERGY      TOTAL DENSITY OF STATES - FULL SCALE =    13.63012 AU

 -47.91104  |                T                                                                                                      
 -47.40764  T                                                                                                                       
 -46.90424  T                                                                                                                       
 -46.40083  T                                                                                                                       
 -45.89743  T                                                                                                                       
 -45.39403  T                                                                                                                       
 -44.89063  T                                                                                                                       
 -44.38723  T                                                                                                                       
 -43.88383  T                                                                                                                       
 -43.38042  T                                                                                                                       
 -42.87702  T                                                                                                                       
 -42.37362  T                                                                                                                       
 -41.87022  T                                                                                                                       
 -41.36682  T                                                                                                                       
 -40.86342  T                                                                                                                       
 -40.36001  T                                                                                                                       
 -39.85661  T                                                                                                                       
 -39.35321  T                                                                                                                       
 -38.84981  T                                                                                                                       
 -38.34641  T                                                                                                                       
 -37.84301  T                                                                                                                       
 -37.33960  T                                                                                                                       
 -36.83620  T                                                                                                                       
 -36.33280  T                                                                                                                       
 -35.82940  T                                                                                                                       
 -35.32600  T                                                                                                                       
 -34.82259  T                                                                                                                       
 -34.31919  T                                                                                                                       
 -33.81579  T                                                                                                                       
 -33.31239  T                                                                                                                       
 -32.80899  T                                                                                                                       
 -32.30559  T                                                                                                                       
 -31.80218  T                                                                                                                       
 -31.29878  T                                                                                                                       
 -30.79538  T                                                                                                                       
 -30.29198  T                                                                                                                       
 -29.78858  T                                                                                                                       
 -29.28518  T                                                                                                                       
 -28.78177  T                                                                                                                       
 -28.27837  T                                                                                                                       
 -27.77497  T                                                                                                                       
 -27.27157  T                                                                                                                       
 -26.76817  T                                                                                                                       
 -26.26477  T                                                                                                                       
 -25.76136  T                                                                                                                       
 -25.25796  T                                                                                                                       
 -24.75456  T                                                                                                                       
 -24.25116  T                                                                                                                       
 -23.74776  T                                                                                                                       
 -23.24436  T                                                                                                                       
 -22.74095  T                                                                                                                       
 -22.23755  T                                                                                                                       
 -21.73415  T                                                                                                                       
 -21.23075  T                                                                                                                       
 -20.72735  T                                                                                                                       
 -20.22394  |                T                                                                                                      
 -19.72054  |                T                                                                                                      
 -19.21714  T                                                                                                                       
 -18.71374  T                                                                                                                       
 -18.21034  T                                                                                                                       
 -17.70694  T                                                                                                                       
 -17.20353  T                                                                                                                       
 -16.70013  T                                                                                                                       
 -16.19673  T                                                                                                                       
 -15.69333  T                                                                                                                       
 -15.18993  T                                                                                                                       
 -14.68653  T                                                                                                                       
 -14.18312  T                                                                                                                       
 -13.67972  T                                                                                                                       
 -13.17632  T                                                                                                                       
 -12.67292  T                                                                                                                       
 -12.16952  T                                                                                                                       
 -11.66612  T                                                                                                                       
 -11.16271  T                                                                                                                       
 -10.65931  T                                                                                                                       
 -10.15591  T                                                                                                                       
  -9.65251  T                                                                                                                       
  -9.14911  T                                                                                                                       
  -8.64571  T                                                                                                                       
  -8.14230  T                                                                                                                       
  -7.63890  T                                                                                                                       
  -7.13550  T                                                                                                                       
  -6.63210  T                                                                                                                       
  -6.12870  T                                                                                                                       
  -5.62529  T                                                                                                                       
  -5.12189  T                                                                                                                       
  -4.61849  T                                                                                                                       
  -4.11509  T                                                                                                                       
  -3.61169  |                T                                                                                                      
  -3.10829  |                T                                                                                                      
  -2.60488  T                                                                                                                       
  -2.10148  |                                                                                                       T               
  -1.59808  |                                                                                                       T               
  -1.09468  |                                                                                                                     T 
  -0.59128  |                                                                                                       T               
  -0.08788  |                                                                                                       T               
   0.41553  |                                   T                                                                                   

  102 DATA WRITTEN ON UNIT 25 WITH THE FOLLOWING HEADER :
 -%-0DOSS      1    5    0    0    0    0

  102 DATA WRITTEN ON UNIT 25 WITH THE FOLLOWING HEADER :
 -%-0DOSS      2    9    0    0    0    0

  102 DATA WRITTEN ON UNIT 25 WITH THE FOLLOWING HEADER :
 -%-0DOSS      3   14    0    0    0    0
 TTTTTTTTTTTTTTTTTTTTTTTTTTTTTT DOSS        TELAPSE        0.06 TCPU        0.06
 ENDPROP   
 TTTTTTTTTTTTTTTTTTTTTTTTTTTTTT END         TELAPSE        0.06 TCPU        0.06
 EEEEEEEEEE TERMINATION  DATE 30 04 2019 TIME 23:57:21.3
