
         
 *******************************************************************************
 *                                                                             *
 *                               CRYSTAL14                                     *
 *                      public : 1.0.1 - Dec 11th, 2013                        *
 *                       HTTP://WWW.CRYSTAL.UNITO.IT                           *
 *                                                                             *
 *                              MAIN AUTHORS                                   *
 *                                                                             *
 *  R. DOVESI(1,11), V.R. SAUNDERS(2), C. ROETTI(1,11), R. ORLANDO(1,11),      *
 *  C.M. ZICOVICH-WILSON(1,3), F. PASCALE(4), B. CIVALLERI(1,11),              *
 *  K. DOLL(5), N.M. HARRISON(2,6), I. J. BUSH(7), Ph. D'ARCO(8),              *
 *  M. LLUNELL(9), M. CAUSA'(10), Y. NOEL(8)                                   *
 *                                                                             *
 *        CONTRIBUTIONS TO THE CURRENT RELEASE HAVE BEEN GIVEN BY              *
 *                                                                             *
 *  L. MASCHIO(1,11), S. CASASSA(1,11), A. ERBA(1,11), M. FERRABONE(1,11),     *
 *  M. DE LA PIERRE(1,11), M. FERRERO(1,11), V. LACIVITA(1,11),                *
 *  J. BAIMA(1,11), E. ALBANESE(1,11), M.F. PEINTINGER(12), R. BAST(13),       *
 *  M. RERAT(14), B. KIRTMAN(15), R. DEMICHELIS(1,16)                          *
 *                                                                             *
 * (1) THEORETICAL CHEMISTRY GROUP - UNIVERSITA' DI TORINO - TORINO (ITALY)    *
 *     http://www.crystal.unito.it                                             *
 * (2) COMPUTATIONAL SCIENCE & ENGINEERING DEPARTMENT - STFC DARESBURY (UK)    *
 *     http://www.stfc.ac.uk/CSE/randd/cmg/CRYSTAL/25806.aspx                  *
 * (3) UNIVERSIDAD AUTONOMA DEL ESTADO DE MORELOS - CUERNAVACA (MEXICO)        *
 * (4) UNIVERSITE' DE LORRAINE - NANCY (FRANCE)                                *
 * (5) UNIVERSITAET ULM - ULM (GERMANY); (6) IMPERIAL COLLEGE - LONDON (UK)    *
 * (7) NAG - OXFORD (UK); (8) UPMC - SORBONNE UNIVERSITES - PARIS (FRANCE)     *
 * (9) UNIVERSIDAD DE BARCELONA - BARCELONA (SPAIN)                            *
 *(10) UNIVERSITA' DI NAPOLI "FEDERICO II" - NAPOLI (ITALY)                    *
 *(11) NIS - NANOSTRUCTURED INTERFACES AND SURFACES - TORINO (ITALY)           *
 *(12) MPI FUER CHEMISCHE ENERGIEKONVERSION - MUELHEIM AN DER RUHR (GERMANY)   *
 *(13) UNIVERSITY OF STOCKHOLM - STOCKHOLM (SWEDEN)                            *
 *(14) UNIVERSITE' DE PAU ET DES PAYS DE L'ADOUR - PAU (FRANCE)                *
 *(15) UNIVERSITY OF CALIFORNIA SANTA BARBARA - SANTA BARBARA (USA)            *
 *(16) CURTIN UNIVERSITY - PERTH (AUSTRALIA)                                   *
 *                                                                             *
 ********************************************************************************
 EEEEEEEEEE STARTING  DATE 27 04 2019 TIME 18:24:32.2
 Crystal calc                                                                    

 GEOMETRY INPUT FROM EXTERNAL FILE (FORTRAN UNIT 34)
 3D - CRYSTAL 

 *******************************************************************************
 LATTICE PARAMETERS  (ANGSTROMS AND DEGREES) - PRIMITIVE CELL
       A          B          C         ALPHA      BETA     GAMMA        VOLUME
    2.74670    2.74670    2.74670     60.0000   60.0000   60.0000      14.65271
 INFORMATION **** CHKGRP **** REORDERING INVERSION OP - ORIGINAL LBL =          33

 NUMBER OF IRREDUCIBLE ATOMS IN THE CELL:    2

 CARTESIAN COORDINATES (ANGSTROM) - IRREDUCIBLE ATOMS AND SYMMETRY RELATED

 AT.IRR.  AT  AT.N.          X                   Y                   Z
     1     1     8    0.000000000000E+00 -1.942209061000E+00  0.000000000000E+00
     2     2    12    1.078142609000E-16  1.078142609000E-16  1.078142609000E-16

 NUMBER OF SYMMETRY OPERATORS         :   48
 *******************************************************************************
 LATTICE PARAMETERS (ANGSTROMS AND DEGREES) - BOHR = 0.5291772083 ANGSTROM
 PRIMITIVE CELL - CENTRING CODE 5/0 VOLUME=    14.652709 - DENSITY  4.531 g/cm^3
         A              B              C           ALPHA      BETA       GAMMA 
     2.74669840     2.74669840     2.74669840    60.000000  60.000000  60.000000
 *******************************************************************************
 ATOMS IN THE ASYMMETRIC UNIT    2 - ATOMS IN THE UNIT CELL:    2
     ATOM              X/A                 Y/B                 Z/C    
 *******************************************************************************
   1 T   8 O    -5.000000000000E-01 -5.000000000000E-01  5.000000000000E-01
   2 T  12 MG    2.775557561360E-17  2.775557561360E-17  2.775557561360E-17

 TRANSFORMATION MATRIX PRIMITIVE-CRYSTALLOGRAPHIC CELL
 -1.0000  1.0000  1.0000  1.0000 -1.0000  1.0000  1.0000  1.0000 -1.0000

 *******************************************************************************
 CRYSTALLOGRAPHIC CELL (VOLUME=         58.61083582)
         A              B              C           ALPHA      BETA       GAMMA 
     3.88441812     3.88441812     3.88441812    90.000000  90.000000  90.000000

 COORDINATES IN THE CRYSTALLOGRAPHIC CELL
     ATOM              X/A                 Y/B                 Z/C    
 *******************************************************************************
   1 T   8 O     0.000000000000E+00  5.000000000000E-01  0.000000000000E+00
   2 T  12 MG    2.775557561360E-17  2.775557561360E-17  2.775557561360E-17

 T = ATOM BELONGING TO THE ASYMMETRIC UNIT
 *******************************************************************************
 * GEOMETRY EDITING - INPUT COORDINATES ARE GIVEN IN ANGSTROM         
 *******************************************************************************

 GEOMETRY NOW FULLY CONSISTENT WITH THE GROUP

 FRQFRQFRQFRQFRQFRQFRQFRQFRQFRQFRQFRQFRQFRQFRQFRQFRQFRQFRQFRQFRQFRQFRQFRQFRQFRQ

                       FREQUENCY CALCULATION

 INFORMATION **** INPFREQ **** IR INTENSITIES EVALUATED THROUGH CPHF APPROACH
 INFORMATION **** INPFREQ **** NEW DEFAULT - IMPOSING ECKART CONDITIONS TO THE HESSIAN

 GCALCO - MAX INDICES DIRECT LATTICE VECTOR    14    14    14
 NO.OF VECTORS CREATED 6999 STARS  105 RMAX    54.93117 BOHR

 GEOMETRY FOR WAVE FUNCTION - DIMENSIONALITY OF THE SYSTEM    3
 (NON PERIODIC DIRECTION: LATTICE PARAMETER FORMALLY SET TO 500)
 *******************************************************************************
 LATTICE PARAMETERS (ANGSTROMS AND DEGREES) - BOHR = 0.5291772083 ANGSTROM
 PRIMITIVE CELL - CENTRING CODE 5/0 VOLUME=    14.652709 - DENSITY  4.531 g/cm^3
         A              B              C           ALPHA      BETA       GAMMA 
     2.74669840     2.74669840     2.74669840    60.000000  60.000000  60.000000
 *******************************************************************************
 ATOMS IN THE ASYMMETRIC UNIT    2 - ATOMS IN THE UNIT CELL:    2
     ATOM              X/A                 Y/B                 Z/C    
 *******************************************************************************
   1 T   8 O    -5.000000000000E-01 -5.000000000000E-01 -5.000000000000E-01
   2 T  12 MG    3.173178390418E-33 -3.173178390418E-33 -3.173178390418E-33

 TRANSFORMATION MATRIX PRIMITIVE-CRYSTALLOGRAPHIC CELL
 -1.0000  1.0000  1.0000  1.0000 -1.0000  1.0000  1.0000  1.0000 -1.0000

 *******************************************************************************
 CRYSTALLOGRAPHIC CELL (VOLUME=         58.61083582)
         A              B              C           ALPHA      BETA       GAMMA 
     3.88441812     3.88441812     3.88441812    90.000000  90.000000  90.000000

 COORDINATES IN THE CRYSTALLOGRAPHIC CELL
     ATOM              X/A                 Y/B                 Z/C    
 *******************************************************************************
   1 T   8 O    -5.000000000000E-01 -5.000000000000E-01 -5.000000000000E-01
   2 T  12 MG   -3.173178390418E-33  0.000000000000E+00  0.000000000000E+00

 T = ATOM BELONGING TO THE ASYMMETRIC UNIT

 ****   48 SYMMOPS - TRANSLATORS IN FRACTIONAL UNITS
 **** MATRICES AND TRANSLATORS IN THE CRYSTALLOGRAPHIC REFERENCE FRAME
   V INV                    ROTATION MATRICES                   TRANSLATORS
   1   1  1.00  0.00  0.00  0.00  1.00  0.00  0.00  0.00  1.00  0.00  0.00  0.00
   2   3  1.00  1.00  1.00  0.00  0.00 -1.00 -1.00  0.00  0.00  0.00  0.00  0.00
   3   2  0.00  0.00 -1.00  1.00  1.00  1.00  0.00 -1.00  0.00  0.00  0.00  0.00
   4   4  0.00  1.00  0.00  1.00  0.00  0.00 -1.00 -1.00 -1.00  0.00  0.00  0.00
   5   5 -1.00 -1.00 -1.00  0.00  0.00  1.00  0.00  1.00  0.00  0.00  0.00  0.00
   6   6  0.00 -1.00  0.00 -1.00  0.00  0.00  0.00  0.00 -1.00  0.00  0.00  0.00
   7   7  0.00  0.00  1.00 -1.00 -1.00 -1.00  1.00  0.00  0.00  0.00  0.00  0.00
   8   8 -1.00  0.00  0.00  0.00 -1.00  0.00  1.00  1.00  1.00  0.00  0.00  0.00
   9  10  0.00  0.00  1.00  1.00  0.00  0.00  0.00  1.00  0.00  0.00  0.00  0.00
  10   9  0.00  1.00  0.00  0.00  0.00  1.00  1.00  0.00  0.00  0.00  0.00  0.00
  11  12 -1.00 -1.00 -1.00  0.00  1.00  0.00  1.00  0.00  0.00  0.00  0.00  0.00
  12  11  0.00  0.00  1.00  0.00  1.00  0.00 -1.00 -1.00 -1.00  0.00  0.00  0.00
  13  14  0.00  1.00  0.00 -1.00 -1.00 -1.00  0.00  0.00  1.00  0.00  0.00  0.00
  14  13 -1.00 -1.00 -1.00  1.00  0.00  0.00  0.00  0.00  1.00  0.00  0.00  0.00
  15  16  1.00  0.00  0.00  0.00  0.00  1.00 -1.00 -1.00 -1.00  0.00  0.00  0.00
  16  15  1.00  0.00  0.00 -1.00 -1.00 -1.00  0.00  1.00  0.00  0.00  0.00  0.00
  17  17 -1.00  0.00  0.00  1.00  1.00  1.00  0.00  0.00 -1.00  0.00  0.00  0.00
  18  19  0.00  0.00 -1.00 -1.00  0.00  0.00  1.00  1.00  1.00  0.00  0.00  0.00
  19  18  0.00 -1.00  0.00  1.00  1.00  1.00 -1.00  0.00  0.00  0.00  0.00  0.00
  20  20  1.00  1.00  1.00  0.00 -1.00  0.00  0.00  0.00 -1.00  0.00  0.00  0.00
  21  22  0.00 -1.00  0.00  0.00  0.00 -1.00  1.00  1.00  1.00  0.00  0.00  0.00
  22  21  1.00  1.00  1.00 -1.00  0.00  0.00  0.00 -1.00  0.00  0.00  0.00  0.00
  23  23  0.00  0.00 -1.00  0.00 -1.00  0.00 -1.00  0.00  0.00  0.00  0.00  0.00
  24  24 -1.00  0.00  0.00  0.00  0.00 -1.00  0.00 -1.00  0.00  0.00  0.00  0.00
  25  25 -1.00  0.00  0.00  0.00 -1.00  0.00  0.00  0.00 -1.00  0.00  0.00  0.00
  26  27 -1.00 -1.00 -1.00  0.00  0.00  1.00  1.00  0.00  0.00  0.00  0.00  0.00
  27  26  0.00  0.00  1.00 -1.00 -1.00 -1.00  0.00  1.00  0.00  0.00  0.00  0.00
  28  28  0.00 -1.00  0.00 -1.00  0.00  0.00  1.00  1.00  1.00  0.00  0.00  0.00
  29  29  1.00  1.00  1.00  0.00  0.00 -1.00  0.00 -1.00  0.00  0.00  0.00  0.00
  30  30  0.00  1.00  0.00  1.00  0.00  0.00  0.00  0.00  1.00  0.00  0.00  0.00
  31  31  0.00  0.00 -1.00  1.00  1.00  1.00 -1.00  0.00  0.00  0.00  0.00  0.00
  32  32  1.00  0.00  0.00  0.00  1.00  0.00 -1.00 -1.00 -1.00  0.00  0.00  0.00
  33  34  0.00  0.00 -1.00 -1.00  0.00  0.00  0.00 -1.00  0.00  0.00  0.00  0.00
  34  33  0.00 -1.00  0.00  0.00  0.00 -1.00 -1.00  0.00  0.00  0.00  0.00  0.00
  35  36  1.00  1.00  1.00  0.00 -1.00  0.00 -1.00  0.00  0.00  0.00  0.00  0.00
  36  35  0.00  0.00 -1.00  0.00 -1.00  0.00  1.00  1.00  1.00  0.00  0.00  0.00
  37  38  0.00 -1.00  0.00  1.00  1.00  1.00  0.00  0.00 -1.00  0.00  0.00  0.00
  38  37  1.00  1.00  1.00 -1.00  0.00  0.00  0.00  0.00 -1.00  0.00  0.00  0.00
  39  40 -1.00  0.00  0.00  0.00  0.00 -1.00  1.00  1.00  1.00  0.00  0.00  0.00
  40  39 -1.00  0.00  0.00  1.00  1.00  1.00  0.00 -1.00  0.00  0.00  0.00  0.00
  41  41  1.00  0.00  0.00 -1.00 -1.00 -1.00  0.00  0.00  1.00  0.00  0.00  0.00
  42  43  0.00  0.00  1.00  1.00  0.00  0.00 -1.00 -1.00 -1.00  0.00  0.00  0.00
  43  42  0.00  1.00  0.00 -1.00 -1.00 -1.00  1.00  0.00  0.00  0.00  0.00  0.00
  44  44 -1.00 -1.00 -1.00  0.00  1.00  0.00  0.00  0.00  1.00  0.00  0.00  0.00
  45  46  0.00  1.00  0.00  0.00  0.00  1.00 -1.00 -1.00 -1.00  0.00  0.00  0.00
  46  45 -1.00 -1.00 -1.00  1.00  0.00  0.00  0.00  1.00  0.00  0.00  0.00  0.00
  47  47  0.00  0.00  1.00  0.00  1.00  0.00  1.00  0.00  0.00  0.00  0.00  0.00
  48  48  1.00  0.00  0.00  0.00  0.00  1.00  0.00  1.00  0.00  0.00  0.00  0.00

 DIRECT LATTICE VECTORS CARTESIAN COMPONENTS (ANGSTROM)
          X                    Y                    Z
   0.000000000000E+00   0.194220906100E+01   0.194220906100E+01
   0.194220906100E+01   0.000000000000E+00   0.194220906100E+01
   0.194220906100E+01   0.194220906100E+01   0.000000000000E+00


 CARTESIAN COORDINATES - PRIMITIVE CELL
 *******************************************************************************
 *      ATOM          X(ANGSTROM)         Y(ANGSTROM)         Z(ANGSTROM)
 *******************************************************************************
    1     8 O     1.942209061000E+00  1.942209061000E+00  1.942209061000E+00
    2    12 MG   -1.232595164408E-32  0.000000000000E+00  0.000000000000E+00

 *******************************************************************************
 LOCAL ATOMIC FUNCTIONS BASIS SET
 *******************************************************************************
   ATOM   X(AU)   Y(AU)   Z(AU)  N. TYPE  EXPONENT  S COEF   P COEF   D/F/G COEF
 *******************************************************************************
   1 O    3.670   3.670   3.670
                                  1 S  
                                         1.307E+02 1.543E-01 0.000E+00 0.000E+00
                                         2.381E+01 5.353E-01 0.000E+00 0.000E+00
                                         6.444E+00 4.446E-01 0.000E+00 0.000E+00
                             2-   5 SP 
                                         5.033E+00-9.997E-02 1.559E-01 0.000E+00
                                         1.170E+00 3.995E-01 6.077E-01 0.000E+00
                                         3.804E-01 7.001E-01 3.920E-01 0.000E+00
   2 MG  -0.000   0.000   0.000
                                  6 S  
                                         2.992E+02 1.543E-01 0.000E+00 0.000E+00
                                         5.451E+01 5.353E-01 0.000E+00 0.000E+00
                                         1.475E+01 4.446E-01 0.000E+00 0.000E+00
                             7-  10 SP 
                                         1.512E+01-9.997E-02 1.559E-01 0.000E+00
                                         3.514E+00 3.995E-01 6.077E-01 0.000E+00
                                         1.143E+00 7.001E-01 3.920E-01 0.000E+00
                            11-  14 SP 
                                         1.395E+00-2.196E-01 1.059E-02 0.000E+00
                                         3.893E-01 2.256E-01 5.952E-01 0.000E+00
                                         1.524E-01 9.004E-01 4.620E-01 0.000E+00
 INFORMATION **** SET_MPP **** PCRYSTAL CALCULATION
 INFORMATION **** READM2 **** NEW DEFAULT: FOCK/KS MATRIX MIXING SET TO 30 %
 INFORMATION **** READM2 **** NEW DEFAULT: FULL DIRECT SCF MODE
 INFORMATION **** READM2 **** NEW DEFAULT: COULOMB BIPOLAR BUFFER SET TO 32 Mb
 INFORMATION **** READM2 **** NEW DEFAULT: EXCHANGE BIPOLAR BUFFER SET TO 32 Mb
 *******************************************************************************
 N. OF ATOMS PER CELL         2  COULOMB OVERLAP TOL         (T1) 10**   -6
 NUMBER OF SHELLS             5  COULOMB PENETRATION TOL     (T2) 10**   -6
 NUMBER OF AO                14  EXCHANGE OVERLAP TOL        (T3) 10**   -6
 N. OF ELECTRONS PER CELL    20  EXCHANGE PSEUDO OVP (F(G))  (T4) 10**   -6
 CORE ELECTRONS PER CELL     12  EXCHANGE PSEUDO OVP (P(G))  (T5) 10**  -12
 N. OF SYMMETRY OPERATORS    48  POLE ORDER IN MONO ZONE                  4
 *******************************************************************************
 TYPE OF CALCULATION :  RESTRICTED CLOSED SHELL
 HARTREE-FOCK HAMILTONIAN

 CAPPA:IS1  8;IS2  8;IS3  8; K PTS MONK NET  29; SYMMOPS:K SPACE  48;G SPACE  48

 *******************************************************************************
 MAX NUMBER OF SCF CYCLES      50  CONVERGENCE ON DELTAP        10**-16
 WEIGHT OF F(I) IN F(I+1)      30% CONVERGENCE ON ENERGY        10**-10
 SHRINK. FACT.(MONKH.)    8  8  8  NUMBER OF K POINTS IN THE IBZ     29
 SHRINKING FACTOR(GILAT NET)    8  NUMBER OF K POINTS(GILAT NET)     29
 *******************************************************************************
 *** K POINTS COORDINATES (OBLIQUE COORDINATES IN UNITS OF IS =  8)
   1-R(  0  0  0)   2-C(  1  0  0)   3-C(  2  0  0)   4-C(  3  0  0)
   5-R(  4  0  0)   6-C(  1  1  0)   7-C(  2  1  0)   8-C(  3  1  0)
   9-C(  4  1  0)  10-C(  5  1  0)  11-C(  6  1  0)  12-C(  7  1  0)
  13-C(  2  2  0)  14-C(  3  2  0)  15-C(  4  2  0)  16-C(  5  2  0)
  17-C(  6  2  0)  18-C(  3  3  0)  19-C(  4  3  0)  20-C(  5  3  0)
  21-R(  4  4  0)  22-C(  3  2  1)  23-C(  4  2  1)  24-C(  5  2  1)
  25-C(  4  3  1)  26-C(  5  3  1)  27-C(  6  3  1)  28-C(  5  4  1)
  29-C(  6  4  2)

 DIRECT LATTICE VECTORS COMPON. (A.U.)     RECIP. LATTICE VECTORS COMPON. (A.U.) 
        X            Y            Z              X            Y            Z
    0.0000000    3.6702432    3.6702432     -0.8559631    0.8559631    0.8559631
    3.6702432    0.0000000    3.6702432      0.8559631   -0.8559631    0.8559631
    3.6702432    3.6702432    0.0000000      0.8559631    0.8559631   -0.8559631

 DISK SPACE FOR EIGENVECTORS (FTN 10)       10780 REALS

 SYMMETRY ADAPTION OF THE BLOCH FUNCTIONS ENABLED

 MATRIX SIZE: P(G)   19338, F(G)    3404, P(G) IRR     790, F(G) IRR     398
 MAX G-VECTOR INDEX FOR 1- AND 2-ELECTRON INTEGRALS 417

 TTTTTTTTTTTTTTTTTTTTTTTTTTTTTT INPUT       TELAPSE        0.01 TCPU        0.01

 NEIGHBORS OF THE NON-EQUIVALENT ATOMS

 N = NUMBER OF NEIGHBORS AT DISTANCE R
    ATOM  N     R/ANG      R/AU   NEIGHBORS (ATOM LABELS AND CELL INDICES)
   1 O    6     1.9422     3.6702    2 MG   1 0 0    2 MG   0 1 0    2 MG   0 0 1
                                     2 MG   1 1 0    2 MG   1 0 1    2 MG   0 1 1
   1 O   12     2.7467     5.1905    1 O   -1 0 0    1 O    1 0 0    1 O   -1 0 1
                                     1 O    1 0-1    1 O   -1 1 0    1 O    1-1 0
                                     1 O    0-1 0    1 O    0 1 0    1 O    0-1 1
                                     1 O    0 1-1    1 O    0 0-1    1 O    0 0 1
   1 O    8     3.3640     6.3570    2 MG   0 0 0    2 MG   1 1-1    2 MG   1-1 1
                                     2 MG  -1 1 1    2 MG   2 0 0    2 MG   0 2 0
                                     2 MG   0 0 2    2 MG   1 1 1
   1 O    6     3.8844     7.3405    1 O   -1-1 1    1 O    1 1-1    1 O   -1 1-1
                                     1 O    1-1 1    1 O   -1 1 1    1 O    1-1-1
   1 O   24     4.3429     8.2069    2 MG   1 0-1    2 MG  -1 0 1    2 MG   1-1 0
                                     2 MG  -1 1 0    2 MG   0 1-1    2 MG   0-1 1
                                     2 MG   2 0-1    2 MG   2-1 0    2 MG  -1 0 2
                                     2 MG  -1 2 0    2 MG   0 2-1    2 MG   0-1 2
                                     2 MG   2 1-1    2 MG   2-1 1    2 MG   1 2-1
                                     2 MG   1-1 2    2 MG  -1 1 2    2 MG  -1 2 1
                                     2 MG   2 1 0    2 MG   2 0 1    2 MG   1 2 0
                                     2 MG   1 0 2    2 MG   0 2 1    2 MG   0 1 2
   1 O   24     4.7574     8.9902    1 O   -2 0 1    1 O    2 0-1    1 O   -2 1 0
                                     1 O    2-1 0    1 O   -2 1 1    1 O    2-1-1
                                     1 O   -1-1 0    1 O    1 1 0    1 O   -1-1 2
                                     1 O    1 1-2    1 O   -1 0-1    1 O    1 0 1
                                     1 O   -1 0 2    1 O    1 0-2    1 O   -1 2-1
                                     1 O    1-2 1    1 O   -1 2 0    1 O    1-2 0
                                     1 O    0-2 1    1 O    0 2-1    1 O    0-1-1
                                     1 O    0 1 1    1 O    0-1 2    1 O    0 1-2

   2 MG   6     1.9422     3.6702    1 O   -1 0 0    1 O    0-1 0    1 O    0 0-1
                                     1 O   -1-1 0    1 O   -1 0-1    1 O    0-1-1
   2 MG  12     2.7467     5.1905    2 MG  -1 0 0    2 MG   1 0 0    2 MG  -1 0 1
                                     2 MG   1 0-1    2 MG  -1 1 0    2 MG   1-1 0
                                     2 MG   0-1 0    2 MG   0 1 0    2 MG   0-1 1
                                     2 MG   0 1-1    2 MG   0 0-1    2 MG   0 0 1
   2 MG   8     3.3640     6.3570    1 O    0 0 0    1 O   -1-1 1    1 O   -1 1-1
                                     1 O    1-1-1    1 O   -2 0 0    1 O    0-2 0
                                     1 O    0 0-2    1 O   -1-1-1
   2 MG   6     3.8844     7.3405    2 MG  -1-1 1    2 MG   1 1-1    2 MG  -1 1-1
                                     2 MG   1-1 1    2 MG  -1 1 1    2 MG   1-1-1
   2 MG  24     4.3429     8.2069    1 O   -1 0 1    1 O    1 0-1    1 O   -1 1 0
                                     1 O    1-1 0    1 O    0-1 1    1 O    0 1-1
                                     1 O   -2 0 1    1 O   -2 1 0    1 O    1 0-2
                                     1 O    1-2 0    1 O    0-2 1    1 O    0 1-2
                                     1 O   -2-1 1    1 O   -2 1-1    1 O   -1-2 1
                                     1 O   -1 1-2    1 O    1-1-2    1 O    1-2-1
                                     1 O   -2-1 0    1 O   -2 0-1    1 O   -1-2 0
                                     1 O   -1 0-2    1 O    0-2-1    1 O    0-1-2
   2 MG  24     4.7574     8.9902    2 MG  -2 0 1    2 MG   2 0-1    2 MG  -2 1 0
                                     2 MG   2-1 0    2 MG  -2 1 1    2 MG   2-1-1
                                     2 MG  -1-1 0    2 MG   1 1 0    2 MG  -1-1 2
                                     2 MG   1 1-2    2 MG  -1 0-1    2 MG   1 0 1
                                     2 MG  -1 0 2    2 MG   1 0-2    2 MG  -1 2-1
                                     2 MG   1-2 1    2 MG  -1 2 0    2 MG   1-2 0
                                     2 MG   0-2 1    2 MG   0 2-1    2 MG   0-1-1
                                     2 MG   0 1 1    2 MG   0-1 2    2 MG   0 1-2


 THERE ARE NO SYMMETRY ALLOWED DIRECTIONS
 TTTTTTTTTTTTTTTTTTTTTTTTTTTTTT SYMM        TELAPSE        0.01 TCPU        0.01
 TTTTTTTTTTTTTTTTTTTTTTTTTTTTTT INT_SCREEN  TELAPSE        0.01 TCPU        0.01
 INFORMATION **** EXCBUF **** EXCH. BIPO BUFFER: WORDS USED =      118530
 TTTTTTTTTTTTTTTTTTTTTTTTTTTTTT INT_CALC    TELAPSE        0.03 TCPU        0.03
 EEEEEEEEEE INT_CALC TERMINATION  DATE 27 04 2019 TIME 18:24:32.3

 *******************************************************************************
 Crystal calc                                                                    
 CRYSTAL - SCF - TYPE OF CALCULATION :  RESTRICTED CLOSED SHELL
 *******************************************************************************

 CAPPA:IS1  8;IS2  8;IS3  8; K PTS MONK NET  29; SYMMOPS:K SPACE  48;G SPACE  48

 TTTTTTTTTTTTTTTTTTTTTTTTTTTTTT SDIK        TELAPSE        0.03 TCPU        0.03

 AAAAAAAAAAAAAAAAAAAAAAAAAAAAAAAAAAAAAAAAAAAAAAAAAAAAAAAAAAAAAAAAAAAAAAAAAAAAAAA
         ATOMIC WAVEFUNCTION(S)


 NUCLEAR CHARGE  8.0  SYMMETRY SPECIES            S    P
 N. ELECTRONS    8.0  NUMBER OF PRIMITIVE GTOS    6    3
                      NUMBER OF CONTRACTED GTOS   2    1
                      NUMBER OF CLOSED SHELLS     2    0
                      OPEN SHELL OCCUPATION       0    4

  ZNUC SCFIT  TOTAL HF ENERGY   KINETIC ENERGY   VIRIAL THEOREM ACCURACY
   8.0   1   -7.380415026E+01  7.344496710E+01 -2.004890507E+00  0.0E+00

 NUCLEAR CHARGE 12.0  SYMMETRY SPECIES            S    P
 N. ELECTRONS   12.0  NUMBER OF PRIMITIVE GTOS    9    6
                      NUMBER OF CONTRACTED GTOS   3    2
                      NUMBER OF CLOSED SHELLS     3    1
                      OPEN SHELL OCCUPATION       0    0

  ZNUC SCFIT  TOTAL HF ENERGY   KINETIC ENERGY   VIRIAL THEOREM ACCURACY
  12.0   4   -1.970073545E+02  1.945732082E+02 -2.012510183E+00  2.9E-06

 AAAAAAAAAAAAAAAAAAAAAAAAAAAAAAAAAAAAAAAAAAAAAAAAAAAAAAAAAAAAAAAAAAAAAAAAAAAAAAA

 TTTTTTTTTTTTTTTTTTTTTTTTTTTTTT MOQGAD      TELAPSE        0.04 TCPU        0.03
 TTTTTTTTTTTTTTTTTTTTTTTTTTTTTT SHELLX2     TELAPSE        0.73 TCPU        0.73
 TTTTTTTTTTTTTTTTTTTTTTTTTTTTTT MONMO3      TELAPSE        0.74 TCPU        0.73
 CYC   0 ETOT(AU) -2.710306081238E+02 DETOT -2.71E+02 tst  0.00E+00 PX  1.00E+00
 TTTTTTTTTTTTTTTTTTTTTTTTTTTTTT FDIK        TELAPSE        0.74 TCPU        0.74
 INSULATING STATE
 TOP OF VALENCE BANDS -    BAND     10; K    1; EIG -2.1060509E-01 AU
 BOTTOM OF VIRTUAL BANDS - BAND     11; K    1; EIG  1.3983427E-01 AU
 TTTTTTTTTTTTTTTTTTTTTTTTTTTTTT PDIG        TELAPSE        0.74 TCPU        0.74
 TTTTTTTTTTTTTTTTTTTTTTTTTTTTTT MOQGAD      TELAPSE        0.75 TCPU        0.74
 TTTTTTTTTTTTTTTTTTTTTTTTTTTTTT SHELLX2     TELAPSE        1.45 TCPU        1.44
 TTTTTTTTTTTTTTTTTTTTTTTTTTTTTT MONMO3      TELAPSE        1.45 TCPU        1.45
 CYC   1 ETOT(AU) -2.712227520876E+02 DETOT -1.92E-01 tst  0.00E+00 PX  1.00E+00
 TTTTTTTTTTTTTTTTTTTTTTTTTTTTTT FDIK        TELAPSE        1.46 TCPU        1.45
 INSULATING STATE
 TOP OF VALENCE BANDS -    BAND     10; K   12; EIG -1.2339932E-01 AU
 TOP OF VALENCE BANDS -    BAND     10; K    1; EIG -1.2436964E-01 AU
 BOTTOM OF VIRTUAL BANDS - BAND     11; K    1; EIG  3.8898804E-01 AU
 TTTTTTTTTTTTTTTTTTTTTTTTTTTTTT PDIG        TELAPSE        1.46 TCPU        1.45
 TTTTTTTTTTTTTTTTTTTTTTTTTTTTTT MOQGAD      TELAPSE        1.46 TCPU        1.45
 TTTTTTTTTTTTTTTTTTTTTTTTTTTTTT SHELLX2     TELAPSE        2.15 TCPU        2.14
 TTTTTTTTTTTTTTTTTTTTTTTTTTTTTT MONMO3      TELAPSE        2.16 TCPU        2.14
 CYC   2 ETOT(AU) -2.712557469789E+02 DETOT -3.30E-02 tst  6.86E-03 PX  7.05E-02
 TTTTTTTTTTTTTTTTTTTTTTTTTTTTTT FDIK        TELAPSE        2.16 TCPU        2.15
 INSULATING STATE
 TOP OF VALENCE BANDS -    BAND     10; K   12; EIG -1.3476946E-01 AU
 TOP OF VALENCE BANDS -    BAND     10; K    1; EIG -1.3806243E-01 AU
 BOTTOM OF VIRTUAL BANDS - BAND     11; K    1; EIG  4.5604517E-01 AU
 TTTTTTTTTTTTTTTTTTTTTTTTTTTTTT PDIG        TELAPSE        2.16 TCPU        2.15
 TTTTTTTTTTTTTTTTTTTTTTTTTTTTTT MOQGAD      TELAPSE        2.16 TCPU        2.15
 TTTTTTTTTTTTTTTTTTTTTTTTTTTTTT SHELLX2     TELAPSE        2.85 TCPU        2.84
 TTTTTTTTTTTTTTTTTTTTTTTTTTTTTT MONMO3      TELAPSE        2.86 TCPU        2.84
 CYC   3 ETOT(AU) -2.712589469639E+02 DETOT -3.20E-03 tst  1.41E-03 PX  2.77E-02
 TTTTTTTTTTTTTTTTTTTTTTTTTTTTTT FDIK        TELAPSE        2.86 TCPU        2.84
 INSULATING STATE
 TOP OF VALENCE BANDS -    BAND     10; K   12; EIG -1.4281589E-01 AU
 TOP OF VALENCE BANDS -    BAND     10; K    1; EIG -1.4736743E-01 AU
 BOTTOM OF VIRTUAL BANDS - BAND     11; K    1; EIG  4.7958302E-01 AU
 TTTTTTTTTTTTTTTTTTTTTTTTTTTTTT PDIG        TELAPSE        2.86 TCPU        2.84
 TTTTTTTTTTTTTTTTTTTTTTTTTTTTTT MOQGAD      TELAPSE        2.86 TCPU        2.85
 TTTTTTTTTTTTTTTTTTTTTTTTTTTTTT SHELLX2     TELAPSE        3.55 TCPU        3.53
 TTTTTTTTTTTTTTTTTTTTTTTTTTTTTT MONMO3      TELAPSE        3.55 TCPU        3.54
 CYC   4 ETOT(AU) -2.712594929658E+02 DETOT -5.46E-04 tst  2.60E-04 PX  1.41E-02
 TTTTTTTTTTTTTTTTTTTTTTTTTTTTTT FDIK        TELAPSE        3.55 TCPU        3.54
 INSULATING STATE
 TOP OF VALENCE BANDS -    BAND     10; K   12; EIG -1.4575116E-01 AU
 TOP OF VALENCE BANDS -    BAND     10; K    1; EIG -1.5092291E-01 AU
 BOTTOM OF VIRTUAL BANDS - BAND     11; K    1; EIG  4.8874721E-01 AU
 TTTTTTTTTTTTTTTTTTTTTTTTTTTTTT PDIG        TELAPSE        3.55 TCPU        3.54
 TTTTTTTTTTTTTTTTTTTTTTTTTTTTTT MOQGAD      TELAPSE        3.56 TCPU        3.54
 TTTTTTTTTTTTTTTTTTTTTTTTTTTTTT SHELLX2     TELAPSE        4.30 TCPU        4.28
 TTTTTTTTTTTTTTTTTTTTTTTTTTTTTT MONMO3      TELAPSE        4.31 TCPU        4.29
 CYC   5 ETOT(AU) -2.712595956419E+02 DETOT -1.03E-04 tst  4.20E-05 PX  6.40E-03
 TTTTTTTTTTTTTTTTTTTTTTTTTTTTTT FDIK        TELAPSE        4.31 TCPU        4.29
 INSULATING STATE
 TOP OF VALENCE BANDS -    BAND     10; K   12; EIG -1.4666708E-01 AU
 TOP OF VALENCE BANDS -    BAND     10; K    1; EIG -1.5213095E-01 AU
 BOTTOM OF VIRTUAL BANDS - BAND     11; K    1; EIG  4.9248585E-01 AU
 TTTTTTTTTTTTTTTTTTTTTTTTTTTTTT PDIG        TELAPSE        4.31 TCPU        4.29
 TTTTTTTTTTTTTTTTTTTTTTTTTTTTTT MOQGAD      TELAPSE        4.32 TCPU        4.30
 TTTTTTTTTTTTTTTTTTTTTTTTTTTTTT SHELLX2     TELAPSE        5.05 TCPU        5.03
 TTTTTTTTTTTTTTTTTTTTTTTTTTTTTT MONMO3      TELAPSE        5.06 TCPU        5.03
 CYC   6 ETOT(AU) -2.712596155584E+02 DETOT -1.99E-05 tst  6.66E-06 PX  2.84E-03
 TTTTTTTTTTTTTTTTTTTTTTTTTTTTTT FDIK        TELAPSE        5.06 TCPU        5.03
 INSULATING STATE
 TOP OF VALENCE BANDS -    BAND     10; K   12; EIG -1.4693061E-01 AU
 TOP OF VALENCE BANDS -    BAND     10; K    1; EIG -1.5252895E-01 AU
 BOTTOM OF VIRTUAL BANDS - BAND     11; K    1; EIG  4.9405451E-01 AU
 TTTTTTTTTTTTTTTTTTTTTTTTTTTTTT PDIG        TELAPSE        5.06 TCPU        5.03
 TTTTTTTTTTTTTTTTTTTTTTTTTTTTTT MOQGAD      TELAPSE        5.06 TCPU        5.04
 TTTTTTTTTTTTTTTTTTTTTTTTTTTTTT SHELLX2     TELAPSE        5.76 TCPU        5.73
 TTTTTTTTTTTTTTTTTTTTTTTTTTTTTT MONMO3      TELAPSE        5.76 TCPU        5.73
 CYC   7 ETOT(AU) -2.712596195609E+02 DETOT -4.00E-06 tst  1.26E-06 PX  1.26E-03
 TTTTTTTTTTTTTTTTTTTTTTTTTTTTTT FDIK        TELAPSE        5.76 TCPU        5.73
 INSULATING STATE
 TOP OF VALENCE BANDS -    BAND     10; K   12; EIG -1.4700134E-01 AU
 TOP OF VALENCE BANDS -    BAND     10; K    1; EIG -1.5266086E-01 AU
 BOTTOM OF VIRTUAL BANDS - BAND     11; K    1; EIG  4.9472682E-01 AU
 TTTTTTTTTTTTTTTTTTTTTTTTTTTTTT PDIG        TELAPSE        5.76 TCPU        5.74
 TTTTTTTTTTTTTTTTTTTTTTTTTTTTTT MOQGAD      TELAPSE        5.77 TCPU        5.74
 TTTTTTTTTTTTTTTTTTTTTTTTTTTTTT SHELLX2     TELAPSE        6.46 TCPU        6.43
 TTTTTTTTTTTTTTTTTTTTTTTTTTTTTT MONMO3      TELAPSE        6.46 TCPU        6.43
 CYC   8 ETOT(AU) -2.712596204085E+02 DETOT -8.48E-07 tst  2.56E-07 PX  5.55E-04
 TTTTTTTTTTTTTTTTTTTTTTTTTTTTTT FDIK        TELAPSE        6.46 TCPU        6.43
 INSULATING STATE
 TOP OF VALENCE BANDS -    BAND     10; K   12; EIG -1.4701902E-01 AU
 TOP OF VALENCE BANDS -    BAND     10; K    1; EIG -1.5270620E-01 AU
 BOTTOM OF VIRTUAL BANDS - BAND     11; K    1; EIG  4.9501906E-01 AU
 TTTTTTTTTTTTTTTTTTTTTTTTTTTTTT PDIG        TELAPSE        6.46 TCPU        6.43
 TTTTTTTTTTTTTTTTTTTTTTTTTTTTTT MOQGAD      TELAPSE        6.47 TCPU        6.44
 TTTTTTTTTTTTTTTTTTTTTTTTTTTTTT SHELLX2     TELAPSE        7.18 TCPU        7.15
 TTTTTTTTTTTTTTTTTTTTTTTTTTTTTT MONMO3      TELAPSE        7.19 TCPU        7.15
 CYC   9 ETOT(AU) -2.712596206057E+02 DETOT -1.97E-07 tst  5.20E-08 PX  2.45E-04
 TTTTTTTTTTTTTTTTTTTTTTTTTTTTTT FDIK        TELAPSE        7.19 TCPU        7.16
 INSULATING STATE
 TOP OF VALENCE BANDS -    BAND     10; K   12; EIG -1.4702310E-01 AU
 TOP OF VALENCE BANDS -    BAND     10; K    1; EIG -1.5272274E-01 AU
 BOTTOM OF VIRTUAL BANDS - BAND     11; K    1; EIG  4.9514745E-01 AU
 TTTTTTTTTTTTTTTTTTTTTTTTTTTTTT PDIG        TELAPSE        7.19 TCPU        7.16
 TTTTTTTTTTTTTTTTTTTTTTTTTTTTTT MOQGAD      TELAPSE        7.19 TCPU        7.16
 TTTTTTTTTTTTTTTTTTTTTTTTTTTTTT SHELLX2     TELAPSE        7.88 TCPU        7.85
 TTTTTTTTTTTTTTTTTTTTTTTTTTTTTT MONMO3      TELAPSE        7.89 TCPU        7.85
 CYC  10 ETOT(AU) -2.712596206576E+02 DETOT -5.19E-08 tst  1.06E-08 PX  1.08E-04
 TTTTTTTTTTTTTTTTTTTTTTTTTTTTTT FDIK        TELAPSE        7.89 TCPU        7.85
 INSULATING STATE
 TOP OF VALENCE BANDS -    BAND     10; K   12; EIG -1.4702398E-01 AU
 TOP OF VALENCE BANDS -    BAND     10; K    1; EIG -1.5272923E-01 AU
 BOTTOM OF VIRTUAL BANDS - BAND     11; K    1; EIG  4.9520436E-01 AU
 TTTTTTTTTTTTTTTTTTTTTTTTTTTTTT PDIG        TELAPSE        7.89 TCPU        7.85
 TTTTTTTTTTTTTTTTTTTTTTTTTTTTTT MOQGAD      TELAPSE        7.90 TCPU        7.86
 TTTTTTTTTTTTTTTTTTTTTTTTTTTTTT SHELLX2     TELAPSE        8.59 TCPU        8.56
 TTTTTTTTTTTTTTTTTTTTTTTTTTTTTT MONMO3      TELAPSE        8.60 TCPU        8.56
 CYC  11 ETOT(AU) -2.712596206739E+02 DETOT -1.62E-08 tst  2.16E-09 PX  4.80E-05
 TTTTTTTTTTTTTTTTTTTTTTTTTTTTTT FDIK        TELAPSE        8.60 TCPU        8.56
 INSULATING STATE
 TOP OF VALENCE BANDS -    BAND     10; K   12; EIG -1.4702420E-01 AU
 TOP OF VALENCE BANDS -    BAND     10; K    1; EIG -1.5273197E-01 AU
 BOTTOM OF VIRTUAL BANDS - BAND     11; K    1; EIG  4.9522972E-01 AU
 TTTTTTTTTTTTTTTTTTTTTTTTTTTTTT PDIG        TELAPSE        8.60 TCPU        8.56
 TTTTTTTTTTTTTTTTTTTTTTTTTTTTTT MOQGAD      TELAPSE        8.61 TCPU        8.57
 TTTTTTTTTTTTTTTTTTTTTTTTTTTTTT SHELLX2     TELAPSE        9.31 TCPU        9.26
 TTTTTTTTTTTTTTTTTTTTTTTTTTTTTT MONMO3      TELAPSE        9.31 TCPU        9.27
 CYC  12 ETOT(AU) -2.712596206796E+02 DETOT -5.76E-09 tst  4.41E-10 PX  2.13E-05
 TTTTTTTTTTTTTTTTTTTTTTTTTTTTTT FDIK        TELAPSE        9.31 TCPU        9.27
 INSULATING STATE
 TOP OF VALENCE BANDS -    BAND     10; K   12; EIG -1.4702430E-01 AU
 TOP OF VALENCE BANDS -    BAND     10; K    1; EIG -1.5273321E-01 AU
 BOTTOM OF VIRTUAL BANDS - BAND     11; K    1; EIG  4.9524107E-01 AU
 TTTTTTTTTTTTTTTTTTTTTTTTTTTTTT PDIG        TELAPSE        9.32 TCPU        9.27
 TTTTTTTTTTTTTTTTTTTTTTTTTTTTTT MOQGAD      TELAPSE        9.32 TCPU        9.28
 TTTTTTTTTTTTTTTTTTTTTTTTTTTTTT SHELLX2     TELAPSE       10.02 TCPU        9.97
 TTTTTTTTTTTTTTTTTTTTTTTTTTTTTT MONMO3      TELAPSE       10.02 TCPU        9.98
 CYC  13 ETOT(AU) -2.712596206819E+02 DETOT -2.32E-09 tst  9.03E-11 PX  9.44E-06
 TTTTTTTTTTTTTTTTTTTTTTTTTTTTTT FDIK        TELAPSE       10.02 TCPU        9.98
 INSULATING STATE
 TOP OF VALENCE BANDS -    BAND     10; K   12; EIG -1.4702437E-01 AU
 TOP OF VALENCE BANDS -    BAND     10; K    1; EIG -1.5273379E-01 AU
 BOTTOM OF VIRTUAL BANDS - BAND     11; K    1; EIG  4.9524617E-01 AU
 TTTTTTTTTTTTTTTTTTTTTTTTTTTTTT PDIG        TELAPSE       10.02 TCPU        9.98
 TTTTTTTTTTTTTTTTTTTTTTTTTTTTTT MOQGAD      TELAPSE       10.03 TCPU        9.98
 TTTTTTTTTTTTTTTTTTTTTTTTTTTTTT SHELLX2     TELAPSE       10.74 TCPU       10.69
 TTTTTTTTTTTTTTTTTTTTTTTTTTTTTT MONMO3      TELAPSE       10.74 TCPU       10.69
 CYC  14 ETOT(AU) -2.712596206829E+02 DETOT -9.61E-10 tst  1.85E-11 PX  4.19E-06
 TTTTTTTTTTTTTTTTTTTTTTTTTTTTTT FDIK        TELAPSE       10.74 TCPU       10.69
 INSULATING STATE
 TOP OF VALENCE BANDS -    BAND     10; K   12; EIG -1.4702442E-01 AU
 TOP OF VALENCE BANDS -    BAND     10; K    1; EIG -1.5273407E-01 AU
 BOTTOM OF VIRTUAL BANDS - BAND     11; K    1; EIG  4.9524847E-01 AU
 TTTTTTTTTTTTTTTTTTTTTTTTTTTTTT PDIG        TELAPSE       10.74 TCPU       10.70
 TTTTTTTTTTTTTTTTTTTTTTTTTTTTTT MOQGAD      TELAPSE       10.75 TCPU       10.70
 TTTTTTTTTTTTTTTTTTTTTTTTTTTTTT SHELLX2     TELAPSE       11.45 TCPU       11.40
 TTTTTTTTTTTTTTTTTTTTTTTTTTTTTT MONMO3      TELAPSE       11.46 TCPU       11.40
 CYC  15 ETOT(AU) -2.712596206833E+02 DETOT -4.07E-10 tst  3.81E-12 PX  1.86E-06
 TTTTTTTTTTTTTTTTTTTTTTTTTTTTTT FDIK        TELAPSE       11.46 TCPU       11.41
 INSULATING STATE
 TOP OF VALENCE BANDS -    BAND     10; K   12; EIG -1.4702445E-01 AU
 TOP OF VALENCE BANDS -    BAND     10; K    1; EIG -1.5273421E-01 AU
 BOTTOM OF VIRTUAL BANDS - BAND     11; K    1; EIG  4.9524951E-01 AU
 TTTTTTTTTTTTTTTTTTTTTTTTTTTTTT PDIG        TELAPSE       11.46 TCPU       11.41
 TTTTTTTTTTTTTTTTTTTTTTTTTTTTTT MOQGAD      TELAPSE       11.46 TCPU       11.41
 TTTTTTTTTTTTTTTTTTTTTTTTTTTTTT SHELLX2     TELAPSE       12.15 TCPU       12.09
 TTTTTTTTTTTTTTTTTTTTTTTTTTTTTT MONMO3      TELAPSE       12.15 TCPU       12.10
 CYC  16 ETOT(AU) -2.712596206835E+02 DETOT -1.80E-10 tst  7.85E-13 PX  8.29E-07
 TTTTTTTTTTTTTTTTTTTTTTTTTTTTTT FDIK        TELAPSE       12.15 TCPU       12.10
 INSULATING STATE
 TOP OF VALENCE BANDS -    BAND     10; K   12; EIG -1.4702447E-01 AU
 TOP OF VALENCE BANDS -    BAND     10; K    1; EIG -1.5273427E-01 AU
 BOTTOM OF VIRTUAL BANDS - BAND     11; K    1; EIG  4.9524998E-01 AU
 TTTTTTTTTTTTTTTTTTTTTTTTTTTTTT PDIG        TELAPSE       12.15 TCPU       12.10
 TTTTTTTTTTTTTTTTTTTTTTTTTTTTTT MOQGAD      TELAPSE       12.16 TCPU       12.10
 TTTTTTTTTTTTTTTTTTTTTTTTTTTTTT SHELLX2     TELAPSE       12.86 TCPU       12.80
 TTTTTTTTTTTTTTTTTTTTTTTTTTTTTT MONMO3      TELAPSE       12.86 TCPU       12.81
 CYC  17 ETOT(AU) -2.712596206836E+02 DETOT -7.78E-11 tst  1.63E-13 PX  3.70E-07
 TTTTTTTTTTTTTTTTTTTTTTTTTTTTTT FDIK        TELAPSE       12.87 TCPU       12.81
 INSULATING STATE
 TOP OF VALENCE BANDS -    BAND     10; K   12; EIG -1.4702449E-01 AU
 TOP OF VALENCE BANDS -    BAND     10; K    1; EIG -1.5273431E-01 AU
 BOTTOM OF VIRTUAL BANDS - BAND     11; K    1; EIG  4.9525019E-01 AU
 TTTTTTTTTTTTTTTTTTTTTTTTTTTTTT PDIG        TELAPSE       12.87 TCPU       12.81
 TTTTTTTTTTTTTTTTTTTTTTTTTTTTTT MOQGAD      TELAPSE       12.87 TCPU       12.81
 TTTTTTTTTTTTTTTTTTTTTTTTTTTTTT SHELLX2     TELAPSE       13.56 TCPU       13.50
 ::: TOTAL   ENERGY                               -2.7125962068360E+02
 ::: VIRIAL COEFFICIENT                            9.9266001933155E-01
 TTTTTTTTTTTTTTTTTTTTTTTTTTTTTT MONMO3      TELAPSE       13.57 TCPU       13.50
 CYC  18 ETOT(AU) -2.712596206836E+02 DETOT -3.71E-11 tst  3.38E-14 PX  3.70E-07

 == SCF ENDED - CONVERGENCE ON ENERGY      E(AU) -2.7125962068360E+02 CYCLES  18

 TOTAL ENERGY(HF)(AU)(  18) -2.7125962068360E+02 DE-3.7E-11 tst 3.4E-14 PX 3.7E-07
 INSULATING STATE
 TOP OF VALENCE BANDS -    BAND     10; K   12; EIG -1.4702450E-01 AU
 TOP OF VALENCE BANDS -    BAND     10; K    1; EIG -1.5273433E-01 AU
 BOTTOM OF VIRTUAL BANDS - BAND     11; K    1; EIG  4.9525033E-01 AU
 EIGENVECTORS IN FORTRAN UNIT  8
 EEEEEEEEEE SCF TERMINATION  DATE 27 04 2019 TIME 18:24:45.8

     *********************************************************************
     * ***************************************************************** *
     * *       COUPLED-PERTURBED HARTREE-FOCK CALCULATION (CPHF)       * *
     * *        REFERENCES TO BE QUOTED WHEN USING THIS MODULE:        * *
     * *        (1) M. Ferrero, M. Rerat, R. Orlando, R.Dovesi,        * *
     * *            J. Comput. Chem. 29 (2008), 1450;                  * *
     * *            J. Chem. Phys. 128 (2008), 014110.                 * *
     * *        (2) M. Ferrero, M. Rerat, B. Kirtman, R. Dovesi,       * *
     * *            J. Chem. Phys. 129 (2008), 244110.                 * *
     * ***************************************************************** *
     *********************************************************************

 INFORMATION **** CP_DRIVER **** CONVERGENCE ON ALPHA: 10**          -3
 INFORMATION **** CP_DRIVER **** MAX NUMBER OF CPHF/CPKS CYCLES         200
 INFORMATION **** CP_DRIVER **** CPHF/CPKS DAMPING PERCENTAGE:          60
 STATIC FIELD (OR H*NU < 1E-15 HA)

 *******************************************************************************

 ELECTRIC FIELD APPLIED ALONG CARTESIAN DIRECTION X

 *******************************************************************************
 THE NUMBER OF SYMMETRY OPERATORS HAS BEEN REDUCED FROM 48 TO  1

 NEW GRID IN RECIPROCAL SPACE
 *******************************************************************************
 POINTS IN THE IBZ                 260 SHRINKING FACTORS               8  8  8
 *******************************************************************************
 *** K POINTS COORDINATES (OBLIQUE COORDINATES IN UNITS OF SHRINK FAC. )
   1-R(  0  0  0)   2-C(  1  0  0)   3-C(  0  0  7)   4-C(  1  1  1)
   5-C(  0  1  0)   6-C(  2  0  0)   7-C(  0  0  6)   8-C(  2  2  2)
   9-C(  0  2  0)  10-C(  3  0  0)  11-C(  0  0  5)  12-C(  3  3  3)
  13-C(  0  3  0)  14-R(  4  0  0)  15-R(  0  0  4)  16-R(  4  4  4)
  17-R(  0  4  0)  18-C(  1  1  0)  19-C(  0  1  1)  20-C(  1  0  1)
  21-C(  2  1  0)  22-C(  1  1  7)  23-C(  2  2  1)  24-C(  1  2  0)
  25-C(  0  2  1)  26-C(  1  0  2)  27-C(  0  1  2)  28-C(  6  7  6)
  29-C(  7  6  6)  30-C(  7  1  7)  31-C(  1  7  7)  32-C(  2  0  1)
  33-C(  3  1  0)  34-C(  1  1  6)  35-C(  3  3  2)  36-C(  1  3  0)
  37-C(  0  3  1)  38-C(  1  0  3)  39-C(  0  1  3)  40-C(  5  6  5)
  41-C(  6  5  5)  42-C(  7  2  7)  43-C(  2  7  7)  44-C(  3  0  1)
  45-C(  4  1  0)  46-C(  1  1  5)  47-C(  4  4  3)  48-C(  1  4  0)
  49-C(  0  4  1)  50-C(  1  0  4)  51-C(  0  1  4)  52-C(  4  5  4)
  53-C(  5  4  4)  54-C(  7  3  7)  55-C(  3  7  7)  56-C(  4  0  1)
  57-C(  5  1  0)  58-C(  1  1  4)  59-C(  5  5  4)  60-C(  1  5  0)
  61-C(  0  5  1)  62-C(  1  0  5)  63-C(  0  1  5)  64-C(  3  4  3)
  65-C(  4  3  3)  66-C(  7  4  7)  67-C(  4  7  7)  68-C(  5  0  1)
  69-C(  6  1  0)  70-C(  1  1  3)  71-C(  6  6  5)  72-C(  1  6  0)
  73-C(  0  6  1)  74-C(  1  0  6)  75-C(  0  1  6)  76-C(  2  3  2)
  77-C(  3  2  2)  78-C(  7  5  7)  79-C(  5  7  7)  80-C(  6  0  1)
  81-C(  7  1  0)  82-C(  1  1  2)  83-C(  0  7  1)  84-C(  1  0  7)
  85-C(  1  2  1)  86-C(  2  1  1)  87-C(  2  2  0)  88-C(  0  2  2)
  89-C(  2  0  2)  90-C(  3  2  0)  91-C(  2  2  7)  92-C(  3  3  1)
  93-C(  2  3  0)  94-C(  0  3  2)  95-C(  2  0  3)  96-C(  0  2  3)
  97-C(  5  7  5)  98-C(  7  5  5)  99-C(  6  1  6) 100-C(  1  6  6)
 101-C(  3  0  2) 102-C(  4  2  0) 103-C(  2  2  6) 104-C(  4  4  2)
 105-C(  2  4  0) 106-C(  0  4  2) 107-C(  2  0  4) 108-C(  0  2  4)
 109-C(  4  6  4) 110-C(  6  4  4) 111-C(  6  2  6) 112-C(  2  6  6)
 113-C(  4  0  2) 114-C(  5  2  0) 115-C(  2  2  5) 116-C(  5  5  3)
 117-C(  2  5  0) 118-C(  0  5  2) 119-C(  2  0  5) 120-C(  0  2  5)
 121-C(  3  5  3) 122-C(  5  3  3) 123-C(  6  3  6) 124-C(  3  6  6)
 125-C(  5  0  2) 126-C(  6  2  0) 127-C(  2  2  4) 128-C(  0  6  2)
 129-C(  2  0  6) 130-C(  2  4  2) 131-C(  4  2  2) 132-C(  3  3  0)
 133-C(  0  3  3) 134-C(  3  0  3) 135-C(  4  3  0) 136-C(  3  3  7)
 137-C(  4  4  1) 138-C(  3  4  0) 139-C(  0  4  3) 140-C(  3  0  4)
 141-C(  0  3  4) 142-C(  4  7  4) 143-C(  7  4  4) 144-C(  5  1  5)
 145-C(  1  5  5) 146-C(  4  0  3) 147-C(  5  3  0) 148-C(  3  3  6)
 149-C(  0  5  3) 150-C(  3  0  5) 151-C(  3  6  3) 152-C(  6  3  3)
 153-R(  4  4  0) 154-R(  0  4  4) 155-R(  4  0  4) 156-C(  3  2  1)
 157-C(  2  1  7) 158-C(  2  3  1) 159-C(  1  2  7) 160-C(  1  3  2)
 161-C(  2  1  3) 162-C(  7  1  2) 163-C(  6  1  7) 164-C(  7  2  1)
 165-C(  1  7  2) 166-C(  3  1  2) 167-C(  1  2  3) 168-C(  4  2  1)
 169-C(  2  1  6) 170-C(  3  4  2) 171-C(  1  3  7) 172-C(  4  5  6)
 173-C(  6  4  7) 174-C(  7  6  2) 175-C(  5  7  1) 176-C(  1  4  2)
 177-C(  2  1  4) 178-C(  7  1  3) 179-C(  5  6  4) 180-C(  6  4  5)
 181-C(  6  2  7) 182-C(  2  7  6) 183-C(  3  7  1) 184-C(  6  2  1)
 185-C(  1  6  2) 186-C(  7  1  5) 187-C(  4  2  3) 188-C(  2  3  4)
 189-C(  1  5  7) 190-C(  7  6  4) 191-C(  4  7  6) 192-C(  5  2  1)
 193-C(  2  1  5) 194-C(  4  5  3) 195-C(  1  4  7) 196-C(  3  4  5)
 197-C(  6  3  7) 198-C(  7  6  3) 199-C(  4  7  1) 200-C(  1  5  2)
 201-C(  7  1  4) 202-C(  5  3  4) 203-C(  3  7  6) 204-C(  4  3  1)
 205-C(  3  2  7) 206-C(  3  4  1) 207-C(  2  3  7) 208-C(  1  4  3)
 209-C(  3  1  4) 210-C(  7  2  3) 211-C(  5  1  6) 212-C(  7  3  2)
 213-C(  2  7  3) 214-C(  4  1  3) 215-C(  1  3  4) 216-C(  5  3  1)
 217-C(  3  2  6) 218-C(  4  5  2) 219-C(  2  4  7) 220-C(  3  4  6)
 221-C(  5  3  7) 222-C(  6  5  2) 223-C(  4  6  1) 224-C(  1  5  3)
 225-C(  3  1  5) 226-C(  7  2  4) 227-C(  4  6  3) 228-C(  6  3  4)
 229-C(  5  2  6) 230-C(  2  6  5) 231-C(  4  7  2) 232-C(  6  3  2)
 233-C(  2  6  3) 234-C(  6  1  4) 235-C(  5  2  4) 236-C(  2  4  5)
 237-C(  1  4  6) 238-C(  7  5  3) 239-C(  3  7  5) 240-C(  6  3  1)
 241-C(  3  2  5) 242-C(  2  3  5) 243-C(  5  2  7) 244-C(  1  6  3)
 245-C(  3  1  6) 246-C(  3  5  2) 247-C(  5  2  3) 248-C(  5  3  2)
 249-C(  2  5  3) 250-C(  6  1  3) 251-C(  1  3  6) 252-C(  5  4  1)
 253-C(  4  3  7) 254-C(  1  5  4) 255-C(  4  1  5) 256-C(  7  4  3)
 257-C(  3  7  4) 258-C(  6  4  2) 259-C(  4  2  6) 260-C(  2  6  4)

 GCALCO - MAX INDICES DIRECT LATTICE VECTOR    14    14    14
 NO.OF VECTORS CREATED 6999 STARS  105 RMAX    54.93117 BOHR

 MATRIX SIZE: P(G)   19338, F(G)    3404, P(G) IRR   12974, F(G) IRR    4046
 MAX G-VECTOR INDEX FOR 1- AND 2-ELECTRON INTEGRALS 417

 TTTTTTTTTTTTTTTTTTTTTTTTTTTTTT INPUT       TELAPSE       13.84 TCPU       13.76
 TTTTTTTTTTTTTTTTTTTTTTTTTTTTTT SYMM        TELAPSE       13.84 TCPU       13.76

 ***** NEW REFERENCE GEOMETRY *****
 TTTTTTTTTTTTTTTTTTTTTTTTTTTTTT INT_SCREEN  TELAPSE       13.84 TCPU       13.76
 INFORMATION **** EXCBUF **** EXCH. BIPO BUFFER: WORDS USED =      118530
 TTTTTTTTTTTTTTTTTTTTTTTTTTTTTT INT_CALC    TELAPSE       13.85 TCPU       13.78
 CYCLE   0   ALPHA    5.145890  EPSILON    1.653967  DELTA    5.1459E+00
 TTTTTTTTTTTTTTTTTTTTTTTTTTTTTT MOQGAD      TELAPSE       20.45 TCPU       20.35
 TTTTTTTTTTTTTTTTTTTTTTTTTTTTTT CP_MONMON   TELAPSE       20.48 TCPU       20.38
 CYCLE   1   ALPHA    5.801524  EPSILON    1.737289  DELTA    6.5563E-01
 TTTTTTTTTTTTTTTTTTTTTTTTTTTTTT MOQGAD      TELAPSE       27.10 TCPU       26.97
 TTTTTTTTTTTTTTTTTTTTTTTTTTTTTT CP_MONMON   TELAPSE       27.13 TCPU       27.01
 CYCLE   2   ALPHA    6.284360  EPSILON    1.798650  DELTA    4.8284E-01
 TTTTTTTTTTTTTTTTTTTTTTTTTTTTTT MOQGAD      TELAPSE       33.76 TCPU       33.60
 TTTTTTTTTTTTTTTTTTTTTTTTTTTTTT CP_MONMON   TELAPSE       33.79 TCPU       33.64
 CYCLE   3   ALPHA    6.640457  EPSILON    1.843905  DELTA    3.5610E-01
 TTTTTTTTTTTTTTTTTTTTTTTTTTTTTT MOQGAD      TELAPSE       40.60 TCPU       40.41
 TTTTTTTTTTTTTTTTTTTTTTTTTTTTTT CP_MONMON   TELAPSE       40.63 TCPU       40.45
 CYCLE   4   ALPHA    6.903445  EPSILON    1.877326  DELTA    2.6299E-01
 TTTTTTTTTTTTTTTTTTTTTTTTTTTTTT MOQGAD      TELAPSE       47.22 TCPU       47.00
 TTTTTTTTTTTTTTTTTTTTTTTTTTTTTT CP_MONMON   TELAPSE       47.25 TCPU       47.03
 CYCLE   5   ALPHA    7.097921  EPSILON    1.902041  DELTA    1.9448E-01
 TTTTTTTTTTTTTTTTTTTTTTTTTTTTTT MOQGAD      TELAPSE       53.83 TCPU       53.59
 TTTTTTTTTTTTTTTTTTTTTTTTTTTTTT CP_MONMON   TELAPSE       53.87 TCPU       53.62
 CYCLE   6   ALPHA    7.241906  EPSILON    1.920340  DELTA    1.4399E-01
 TTTTTTTTTTTTTTTTTTTTTTTTTTTTTT MOQGAD      TELAPSE       60.48 TCPU       60.21
 TTTTTTTTTTTTTTTTTTTTTTTTTTTTTT CP_MONMON   TELAPSE       60.51 TCPU       60.24
 CYCLE   7   ALPHA    7.348632  EPSILON    1.933903  DELTA    1.0673E-01
 TTTTTTTTTTTTTTTTTTTTTTTTTTTTTT MOQGAD      TELAPSE       67.09 TCPU       66.79
 TTTTTTTTTTTTTTTTTTTTTTTTTTTTTT CP_MONMON   TELAPSE       67.12 TCPU       66.82
 CYCLE   8   ALPHA    7.427825  EPSILON    1.943967  DELTA    7.9192E-02
 TTTTTTTTTTTTTTTTTTTTTTTTTTTTTT MOQGAD      TELAPSE       73.67 TCPU       73.34
 TTTTTTTTTTTTTTTTTTTTTTTTTTTTTT CP_MONMON   TELAPSE       73.71 TCPU       73.38
 CYCLE   9   ALPHA    7.486645  EPSILON    1.951443  DELTA    5.8821E-02
 TTTTTTTTTTTTTTTTTTTTTTTTTTTTTT MOQGAD      TELAPSE       80.24 TCPU       79.89
 TTTTTTTTTTTTTTTTTTTTTTTTTTTTTT CP_MONMON   TELAPSE       80.28 TCPU       79.92
 CYCLE  10   ALPHA    7.530376  EPSILON    1.957000  DELTA    4.3731E-02
 TTTTTTTTTTTTTTTTTTTTTTTTTTTTTT MOQGAD      TELAPSE       86.91 TCPU       86.53
 TTTTTTTTTTTTTTTTTTTTTTTTTTTTTT CP_MONMON   TELAPSE       86.95 TCPU       86.57
 CYCLE  11   ALPHA    7.562916  EPSILON    1.961135  DELTA    3.2540E-02
 TTTTTTTTTTTTTTTTTTTTTTTTTTTTTT MOQGAD      TELAPSE       93.49 TCPU       93.08
 TTTTTTTTTTTTTTTTTTTTTTTTTTTTTT CP_MONMON   TELAPSE       93.53 TCPU       93.12
 CYCLE  12   ALPHA    7.587149  EPSILON    1.964215  DELTA    2.4233E-02
 TTTTTTTTTTTTTTTTTTTTTTTTTTTTTT MOQGAD      TELAPSE      100.07 TCPU       99.63
 TTTTTTTTTTTTTTTTTTTTTTTTTTTTTT CP_MONMON   TELAPSE      100.11 TCPU       99.67
 CYCLE  13   ALPHA    7.605209  EPSILON    1.966510  DELTA    1.8060E-02
 TTTTTTTTTTTTTTTTTTTTTTTTTTTTTT MOQGAD      TELAPSE      106.69 TCPU      106.23
 TTTTTTTTTTTTTTTTTTTTTTTTTTTTTT CP_MONMON   TELAPSE      106.73 TCPU      106.27
 CYCLE  14   ALPHA    7.618678  EPSILON    1.968222  DELTA    1.3469E-02
 TTTTTTTTTTTTTTTTTTTTTTTTTTTTTT MOQGAD      TELAPSE      113.29 TCPU      112.80
 TTTTTTTTTTTTTTTTTTTTTTTTTTTTTT CP_MONMON   TELAPSE      113.33 TCPU      112.84
 CYCLE  15   ALPHA    7.628730  EPSILON    1.969499  DELTA    1.0052E-02
 TTTTTTTTTTTTTTTTTTTTTTTTTTTTTT MOQGAD      TELAPSE      119.89 TCPU      119.37
 TTTTTTTTTTTTTTTTTTTTTTTTTTTTTT CP_MONMON   TELAPSE      119.93 TCPU      119.41
 CYCLE  16   ALPHA    7.636237  EPSILON    1.970453  DELTA    7.5064E-03
 TTTTTTTTTTTTTTTTTTTTTTTTTTTTTT MOQGAD      TELAPSE      126.53 TCPU      125.99
 TTTTTTTTTTTTTTTTTTTTTTTTTTTTTT CP_MONMON   TELAPSE      126.57 TCPU      126.02
 CYCLE  17   ALPHA    7.641845  EPSILON    1.971166  DELTA    5.6087E-03
 TTTTTTTTTTTTTTTTTTTTTTTTTTTTTT MOQGAD      TELAPSE      133.26 TCPU      132.68
 TTTTTTTTTTTTTTTTTTTTTTTTTTTTTT CP_MONMON   TELAPSE      133.29 TCPU      132.72
 CYCLE  18   ALPHA    7.646038  EPSILON    1.971699  DELTA    4.1929E-03
 TTTTTTTTTTTTTTTTTTTTTTTTTTTTTT MOQGAD      TELAPSE      139.94 TCPU      139.33
 TTTTTTTTTTTTTTTTTTTTTTTTTTTTTT CP_MONMON   TELAPSE      139.97 TCPU      139.37
 CYCLE  19   ALPHA    7.649174  EPSILON    1.972098  DELTA    3.1361E-03
 TTTTTTTTTTTTTTTTTTTTTTTTTTTTTT MOQGAD      TELAPSE      146.51 TCPU      145.88
 TTTTTTTTTTTTTTTTTTTTTTTTTTTTTT CP_MONMON   TELAPSE      146.55 TCPU      145.92
 CYCLE  20   ALPHA    7.651521  EPSILON    1.972396  DELTA    2.3468E-03
 TTTTTTTTTTTTTTTTTTTTTTTTTTTTTT MOQGAD      TELAPSE      153.54 TCPU      152.87
 TTTTTTTTTTTTTTTTTTTTTTTTTTTTTT CP_MONMON   TELAPSE      153.57 TCPU      152.91
 CYCLE  21   ALPHA    7.653278  EPSILON    1.972619  DELTA    1.7568E-03
 TTTTTTTTTTTTTTTTTTTTTTTTTTTTTT MOQGAD      TELAPSE      160.24 TCPU      159.55
 TTTTTTTTTTTTTTTTTTTTTTTTTTTTTT CP_MONMON   TELAPSE      160.27 TCPU      159.58
 CYCLE  22   ALPHA    7.654594  EPSILON    1.972786  DELTA    1.3157E-03
 TTTTTTTTTTTTTTTTTTTTTTTTTTTTTT MOQGAD      TELAPSE      167.16 TCPU      166.43
 TTTTTTTTTTTTTTTTTTTTTTTTTTTTTT CP_MONMON   TELAPSE      167.19 TCPU      166.47
 CYCLE  23   ALPHA    7.655579  EPSILON    1.972912  DELTA    9.8572E-04
 TTTTTTTTTTTTTTTTTTTTTTTTTTTTTT CP_SC       TELAPSE      167.21 TCPU      166.48

 *******************************************************************************

 ELECTRIC FIELD APPLIED ALONG CARTESIAN DIRECTION Y

 *******************************************************************************
 THE NUMBER OF SYMMETRY OPERATORS HAS BEEN REDUCED FROM 48 TO  1

 NEW GRID IN RECIPROCAL SPACE
 *******************************************************************************
 POINTS IN THE IBZ                 260 SHRINKING FACTORS               8  8  8
 *******************************************************************************
 *** K POINTS COORDINATES (OBLIQUE COORDINATES IN UNITS OF SHRINK FAC. )
   1-R(  0  0  0)   2-C(  1  0  0)   3-C(  0  0  7)   4-C(  1  1  1)
   5-C(  0  1  0)   6-C(  2  0  0)   7-C(  0  0  6)   8-C(  2  2  2)
   9-C(  0  2  0)  10-C(  3  0  0)  11-C(  0  0  5)  12-C(  3  3  3)
  13-C(  0  3  0)  14-R(  4  0  0)  15-R(  0  0  4)  16-R(  4  4  4)
  17-R(  0  4  0)  18-C(  1  1  0)  19-C(  0  1  1)  20-C(  1  0  1)
  21-C(  2  1  0)  22-C(  1  1  7)  23-C(  2  2  1)  24-C(  1  2  0)
  25-C(  0  2  1)  26-C(  1  0  2)  27-C(  0  1  2)  28-C(  6  7  6)
  29-C(  7  6  6)  30-C(  7  1  7)  31-C(  1  7  7)  32-C(  2  0  1)
  33-C(  3  1  0)  34-C(  1  1  6)  35-C(  3  3  2)  36-C(  1  3  0)
  37-C(  0  3  1)  38-C(  1  0  3)  39-C(  0  1  3)  40-C(  5  6  5)
  41-C(  6  5  5)  42-C(  7  2  7)  43-C(  2  7  7)  44-C(  3  0  1)
  45-C(  4  1  0)  46-C(  1  1  5)  47-C(  4  4  3)  48-C(  1  4  0)
  49-C(  0  4  1)  50-C(  1  0  4)  51-C(  0  1  4)  52-C(  4  5  4)
  53-C(  5  4  4)  54-C(  7  3  7)  55-C(  3  7  7)  56-C(  4  0  1)
  57-C(  5  1  0)  58-C(  1  1  4)  59-C(  5  5  4)  60-C(  1  5  0)
  61-C(  0  5  1)  62-C(  1  0  5)  63-C(  0  1  5)  64-C(  3  4  3)
  65-C(  4  3  3)  66-C(  7  4  7)  67-C(  4  7  7)  68-C(  5  0  1)
  69-C(  6  1  0)  70-C(  1  1  3)  71-C(  6  6  5)  72-C(  1  6  0)
  73-C(  0  6  1)  74-C(  1  0  6)  75-C(  0  1  6)  76-C(  2  3  2)
  77-C(  3  2  2)  78-C(  7  5  7)  79-C(  5  7  7)  80-C(  6  0  1)
  81-C(  7  1  0)  82-C(  1  1  2)  83-C(  0  7  1)  84-C(  1  0  7)
  85-C(  1  2  1)  86-C(  2  1  1)  87-C(  2  2  0)  88-C(  0  2  2)
  89-C(  2  0  2)  90-C(  3  2  0)  91-C(  2  2  7)  92-C(  3  3  1)
  93-C(  2  3  0)  94-C(  0  3  2)  95-C(  2  0  3)  96-C(  0  2  3)
  97-C(  5  7  5)  98-C(  7  5  5)  99-C(  6  1  6) 100-C(  1  6  6)
 101-C(  3  0  2) 102-C(  4  2  0) 103-C(  2  2  6) 104-C(  4  4  2)
 105-C(  2  4  0) 106-C(  0  4  2) 107-C(  2  0  4) 108-C(  0  2  4)
 109-C(  4  6  4) 110-C(  6  4  4) 111-C(  6  2  6) 112-C(  2  6  6)
 113-C(  4  0  2) 114-C(  5  2  0) 115-C(  2  2  5) 116-C(  5  5  3)
 117-C(  2  5  0) 118-C(  0  5  2) 119-C(  2  0  5) 120-C(  0  2  5)
 121-C(  3  5  3) 122-C(  5  3  3) 123-C(  6  3  6) 124-C(  3  6  6)
 125-C(  5  0  2) 126-C(  6  2  0) 127-C(  2  2  4) 128-C(  0  6  2)
 129-C(  2  0  6) 130-C(  2  4  2) 131-C(  4  2  2) 132-C(  3  3  0)
 133-C(  0  3  3) 134-C(  3  0  3) 135-C(  4  3  0) 136-C(  3  3  7)
 137-C(  4  4  1) 138-C(  3  4  0) 139-C(  0  4  3) 140-C(  3  0  4)
 141-C(  0  3  4) 142-C(  4  7  4) 143-C(  7  4  4) 144-C(  5  1  5)
 145-C(  1  5  5) 146-C(  4  0  3) 147-C(  5  3  0) 148-C(  3  3  6)
 149-C(  0  5  3) 150-C(  3  0  5) 151-C(  3  6  3) 152-C(  6  3  3)
 153-R(  4  4  0) 154-R(  0  4  4) 155-R(  4  0  4) 156-C(  3  2  1)
 157-C(  2  1  7) 158-C(  2  3  1) 159-C(  1  2  7) 160-C(  1  3  2)
 161-C(  2  1  3) 162-C(  7  1  2) 163-C(  6  1  7) 164-C(  7  2  1)
 165-C(  1  7  2) 166-C(  3  1  2) 167-C(  1  2  3) 168-C(  4  2  1)
 169-C(  2  1  6) 170-C(  3  4  2) 171-C(  1  3  7) 172-C(  4  5  6)
 173-C(  6  4  7) 174-C(  7  6  2) 175-C(  5  7  1) 176-C(  1  4  2)
 177-C(  2  1  4) 178-C(  7  1  3) 179-C(  5  6  4) 180-C(  6  4  5)
 181-C(  6  2  7) 182-C(  2  7  6) 183-C(  3  7  1) 184-C(  6  2  1)
 185-C(  1  6  2) 186-C(  7  1  5) 187-C(  4  2  3) 188-C(  2  3  4)
 189-C(  1  5  7) 190-C(  7  6  4) 191-C(  4  7  6) 192-C(  5  2  1)
 193-C(  2  1  5) 194-C(  4  5  3) 195-C(  1  4  7) 196-C(  3  4  5)
 197-C(  6  3  7) 198-C(  7  6  3) 199-C(  4  7  1) 200-C(  1  5  2)
 201-C(  7  1  4) 202-C(  5  3  4) 203-C(  3  7  6) 204-C(  4  3  1)
 205-C(  3  2  7) 206-C(  3  4  1) 207-C(  2  3  7) 208-C(  1  4  3)
 209-C(  3  1  4) 210-C(  7  2  3) 211-C(  5  1  6) 212-C(  7  3  2)
 213-C(  2  7  3) 214-C(  4  1  3) 215-C(  1  3  4) 216-C(  5  3  1)
 217-C(  3  2  6) 218-C(  4  5  2) 219-C(  2  4  7) 220-C(  3  4  6)
 221-C(  5  3  7) 222-C(  6  5  2) 223-C(  4  6  1) 224-C(  1  5  3)
 225-C(  3  1  5) 226-C(  7  2  4) 227-C(  4  6  3) 228-C(  6  3  4)
 229-C(  5  2  6) 230-C(  2  6  5) 231-C(  4  7  2) 232-C(  6  3  2)
 233-C(  2  6  3) 234-C(  6  1  4) 235-C(  5  2  4) 236-C(  2  4  5)
 237-C(  1  4  6) 238-C(  7  5  3) 239-C(  3  7  5) 240-C(  6  3  1)
 241-C(  3  2  5) 242-C(  2  3  5) 243-C(  5  2  7) 244-C(  1  6  3)
 245-C(  3  1  6) 246-C(  3  5  2) 247-C(  5  2  3) 248-C(  5  3  2)
 249-C(  2  5  3) 250-C(  6  1  3) 251-C(  1  3  6) 252-C(  5  4  1)
 253-C(  4  3  7) 254-C(  1  5  4) 255-C(  4  1  5) 256-C(  7  4  3)
 257-C(  3  7  4) 258-C(  6  4  2) 259-C(  4  2  6) 260-C(  2  6  4)

 GCALCO - MAX INDICES DIRECT LATTICE VECTOR    14    14    14
 NO.OF VECTORS CREATED 6999 STARS  105 RMAX    54.93117 BOHR

 MATRIX SIZE: P(G)   19338, F(G)    3404, P(G) IRR   12974, F(G) IRR    4046
 MAX G-VECTOR INDEX FOR 1- AND 2-ELECTRON INTEGRALS 417

 TTTTTTTTTTTTTTTTTTTTTTTTTTTTTT INPUT       TELAPSE      167.24 TCPU      166.51
 TTTTTTTTTTTTTTTTTTTTTTTTTTTTTT SYMM        TELAPSE      167.24 TCPU      166.51

 ***** NEW REFERENCE GEOMETRY *****
 TTTTTTTTTTTTTTTTTTTTTTTTTTTTTT INT_SCREEN  TELAPSE      167.24 TCPU      166.51
 INFORMATION **** EXCBUF **** EXCH. BIPO BUFFER: WORDS USED =      118530
 TTTTTTTTTTTTTTTTTTTTTTTTTTTTTT INT_CALC    TELAPSE      167.26 TCPU      166.53
 CYCLE   0   ALPHA    5.145891  EPSILON    1.653967  DELTA    5.1459E+00
 TTTTTTTTTTTTTTTTTTTTTTTTTTTTTT MOQGAD      TELAPSE      174.50 TCPU      173.72
 TTTTTTTTTTTTTTTTTTTTTTTTTTTTTT CP_MONMON   TELAPSE      174.56 TCPU      173.78
 CYCLE   1   ALPHA    5.801525  EPSILON    1.737289  DELTA    6.5563E-01
 TTTTTTTTTTTTTTTTTTTTTTTTTTTTTT MOQGAD      TELAPSE      181.81 TCPU      180.99
 TTTTTTTTTTTTTTTTTTTTTTTTTTTTTT CP_MONMON   TELAPSE      181.84 TCPU      181.02
 CYCLE   2   ALPHA    6.284360  EPSILON    1.798650  DELTA    4.8284E-01
 TTTTTTTTTTTTTTTTTTTTTTTTTTTTTT MOQGAD      TELAPSE      188.49 TCPU      187.64
 TTTTTTTTTTTTTTTTTTTTTTTTTTTTTT CP_MONMON   TELAPSE      188.53 TCPU      187.67
 CYCLE   3   ALPHA    6.640458  EPSILON    1.843905  DELTA    3.5610E-01
 TTTTTTTTTTTTTTTTTTTTTTTTTTTTTT MOQGAD      TELAPSE      195.36 TCPU      194.47
 TTTTTTTTTTTTTTTTTTTTTTTTTTTTTT CP_MONMON   TELAPSE      195.40 TCPU      194.51
 CYCLE   4   ALPHA    6.903446  EPSILON    1.877326  DELTA    2.6299E-01
 TTTTTTTTTTTTTTTTTTTTTTTTTTTTTT MOQGAD      TELAPSE      202.21 TCPU      201.29
 TTTTTTTTTTTTTTTTTTTTTTTTTTTTTT CP_MONMON   TELAPSE      202.25 TCPU      201.33
 CYCLE   5   ALPHA    7.097921  EPSILON    1.902041  DELTA    1.9448E-01
 TTTTTTTTTTTTTTTTTTTTTTTTTTTTTT MOQGAD      TELAPSE      208.96 TCPU      208.01
 TTTTTTTTTTTTTTTTTTTTTTTTTTTTTT CP_MONMON   TELAPSE      209.00 TCPU      208.05
 CYCLE   6   ALPHA    7.241907  EPSILON    1.920340  DELTA    1.4399E-01
 TTTTTTTTTTTTTTTTTTTTTTTTTTTTTT MOQGAD      TELAPSE      215.65 TCPU      214.67
 TTTTTTTTTTTTTTTTTTTTTTTTTTTTTT CP_MONMON   TELAPSE      215.68 TCPU      214.71
 CYCLE   7   ALPHA    7.348633  EPSILON    1.933903  DELTA    1.0673E-01
 TTTTTTTTTTTTTTTTTTTTTTTTTTTTTT MOQGAD      TELAPSE      222.26 TCPU      221.26
 TTTTTTTTTTTTTTTTTTTTTTTTTTTTTT CP_MONMON   TELAPSE      222.29 TCPU      221.29
 CYCLE   8   ALPHA    7.427825  EPSILON    1.943967  DELTA    7.9192E-02
 TTTTTTTTTTTTTTTTTTTTTTTTTTTTTT MOQGAD      TELAPSE      228.97 TCPU      227.94
 TTTTTTTTTTTTTTTTTTTTTTTTTTTTTT CP_MONMON   TELAPSE      229.01 TCPU      227.98
 CYCLE   9   ALPHA    7.486646  EPSILON    1.951443  DELTA    5.8821E-02
 TTTTTTTTTTTTTTTTTTTTTTTTTTTTTT MOQGAD      TELAPSE      236.75 TCPU      235.67
 TTTTTTTTTTTTTTTTTTTTTTTTTTTTTT CP_MONMON   TELAPSE      236.79 TCPU      235.71
 CYCLE  10   ALPHA    7.530376  EPSILON    1.957000  DELTA    4.3731E-02
 TTTTTTTTTTTTTTTTTTTTTTTTTTTTTT MOQGAD      TELAPSE      243.40 TCPU      242.29
 TTTTTTTTTTTTTTTTTTTTTTTTTTTTTT CP_MONMON   TELAPSE      243.43 TCPU      242.33
 CYCLE  11   ALPHA    7.562916  EPSILON    1.961136  DELTA    3.2540E-02
 TTTTTTTTTTTTTTTTTTTTTTTTTTTTTT MOQGAD      TELAPSE      250.06 TCPU      248.93
 TTTTTTTTTTTTTTTTTTTTTTTTTTTTTT CP_MONMON   TELAPSE      250.10 TCPU      248.96
 CYCLE  12   ALPHA    7.587149  EPSILON    1.964215  DELTA    2.4233E-02
 TTTTTTTTTTTTTTTTTTTTTTTTTTTTTT MOQGAD      TELAPSE      256.71 TCPU      255.55
 TTTTTTTTTTTTTTTTTTTTTTTTTTTTTT CP_MONMON   TELAPSE      256.75 TCPU      255.59
 CYCLE  13   ALPHA    7.605209  EPSILON    1.966510  DELTA    1.8060E-02
 TTTTTTTTTTTTTTTTTTTTTTTTTTTTTT MOQGAD      TELAPSE      263.36 TCPU      262.17
 TTTTTTTTTTTTTTTTTTTTTTTTTTTTTT CP_MONMON   TELAPSE      263.40 TCPU      262.21
 CYCLE  14   ALPHA    7.618679  EPSILON    1.968222  DELTA    1.3469E-02
 TTTTTTTTTTTTTTTTTTTTTTTTTTTTTT MOQGAD      TELAPSE      269.97 TCPU      268.76
 TTTTTTTTTTTTTTTTTTTTTTTTTTTTTT CP_MONMON   TELAPSE      270.01 TCPU      268.79
 CYCLE  15   ALPHA    7.628731  EPSILON    1.969500  DELTA    1.0052E-02
 TTTTTTTTTTTTTTTTTTTTTTTTTTTTTT MOQGAD      TELAPSE      276.61 TCPU      275.37
 TTTTTTTTTTTTTTTTTTTTTTTTTTTTTT CP_MONMON   TELAPSE      276.65 TCPU      275.41
 CYCLE  16   ALPHA    7.636237  EPSILON    1.970454  DELTA    7.5064E-03
 TTTTTTTTTTTTTTTTTTTTTTTTTTTTTT MOQGAD      TELAPSE      283.26 TCPU      281.99
 TTTTTTTTTTTTTTTTTTTTTTTTTTTTTT CP_MONMON   TELAPSE      283.30 TCPU      282.03
 CYCLE  17   ALPHA    7.641846  EPSILON    1.971166  DELTA    5.6087E-03
 TTTTTTTTTTTTTTTTTTTTTTTTTTTTTT MOQGAD      TELAPSE      290.31 TCPU      289.00
 TTTTTTTTTTTTTTTTTTTTTTTTTTTTTT CP_MONMON   TELAPSE      290.34 TCPU      289.04
 CYCLE  18   ALPHA    7.646039  EPSILON    1.971699  DELTA    4.1929E-03
 TTTTTTTTTTTTTTTTTTTTTTTTTTTTTT MOQGAD      TELAPSE      296.96 TCPU      295.63
 TTTTTTTTTTTTTTTTTTTTTTTTTTTTTT CP_MONMON   TELAPSE      296.99 TCPU      295.67
 CYCLE  19   ALPHA    7.649175  EPSILON    1.972098  DELTA    3.1361E-03
 TTTTTTTTTTTTTTTTTTTTTTTTTTTTTT MOQGAD      TELAPSE      303.55 TCPU      302.20
 TTTTTTTTTTTTTTTTTTTTTTTTTTTTTT CP_MONMON   TELAPSE      303.59 TCPU      302.23
 CYCLE  20   ALPHA    7.651522  EPSILON    1.972396  DELTA    2.3468E-03
 TTTTTTTTTTTTTTTTTTTTTTTTTTTTTT MOQGAD      TELAPSE      310.26 TCPU      308.87
 TTTTTTTTTTTTTTTTTTTTTTTTTTTTTT CP_MONMON   TELAPSE      310.30 TCPU      308.91
 CYCLE  21   ALPHA    7.653278  EPSILON    1.972619  DELTA    1.7568E-03
 TTTTTTTTTTTTTTTTTTTTTTTTTTTTTT MOQGAD      TELAPSE      316.83 TCPU      315.42
 TTTTTTTTTTTTTTTTTTTTTTTTTTTTTT CP_MONMON   TELAPSE      316.87 TCPU      315.46
 CYCLE  22   ALPHA    7.654594  EPSILON    1.972786  DELTA    1.3157E-03
 TTTTTTTTTTTTTTTTTTTTTTTTTTTTTT MOQGAD      TELAPSE      323.42 TCPU      321.98
 TTTTTTTTTTTTTTTTTTTTTTTTTTTTTT CP_MONMON   TELAPSE      323.46 TCPU      322.02
 CYCLE  23   ALPHA    7.655580  EPSILON    1.972912  DELTA    9.8572E-04
 TTTTTTTTTTTTTTTTTTTTTTTTTTTTTT CP_SC       TELAPSE      323.48 TCPU      322.04

 *******************************************************************************

 ELECTRIC FIELD APPLIED ALONG CARTESIAN DIRECTION Z

 *******************************************************************************
 THE NUMBER OF SYMMETRY OPERATORS HAS BEEN REDUCED FROM 48 TO  1

 NEW GRID IN RECIPROCAL SPACE
 *******************************************************************************
 POINTS IN THE IBZ                 260 SHRINKING FACTORS               8  8  8
 *******************************************************************************
 *** K POINTS COORDINATES (OBLIQUE COORDINATES IN UNITS OF SHRINK FAC. )
   1-R(  0  0  0)   2-C(  1  0  0)   3-C(  0  0  7)   4-C(  1  1  1)
   5-C(  0  1  0)   6-C(  2  0  0)   7-C(  0  0  6)   8-C(  2  2  2)
   9-C(  0  2  0)  10-C(  3  0  0)  11-C(  0  0  5)  12-C(  3  3  3)
  13-C(  0  3  0)  14-R(  4  0  0)  15-R(  0  0  4)  16-R(  4  4  4)
  17-R(  0  4  0)  18-C(  1  1  0)  19-C(  0  1  1)  20-C(  1  0  1)
  21-C(  2  1  0)  22-C(  1  1  7)  23-C(  2  2  1)  24-C(  1  2  0)
  25-C(  0  2  1)  26-C(  1  0  2)  27-C(  0  1  2)  28-C(  6  7  6)
  29-C(  7  6  6)  30-C(  7  1  7)  31-C(  1  7  7)  32-C(  2  0  1)
  33-C(  3  1  0)  34-C(  1  1  6)  35-C(  3  3  2)  36-C(  1  3  0)
  37-C(  0  3  1)  38-C(  1  0  3)  39-C(  0  1  3)  40-C(  5  6  5)
  41-C(  6  5  5)  42-C(  7  2  7)  43-C(  2  7  7)  44-C(  3  0  1)
  45-C(  4  1  0)  46-C(  1  1  5)  47-C(  4  4  3)  48-C(  1  4  0)
  49-C(  0  4  1)  50-C(  1  0  4)  51-C(  0  1  4)  52-C(  4  5  4)
  53-C(  5  4  4)  54-C(  7  3  7)  55-C(  3  7  7)  56-C(  4  0  1)
  57-C(  5  1  0)  58-C(  1  1  4)  59-C(  5  5  4)  60-C(  1  5  0)
  61-C(  0  5  1)  62-C(  1  0  5)  63-C(  0  1  5)  64-C(  3  4  3)
  65-C(  4  3  3)  66-C(  7  4  7)  67-C(  4  7  7)  68-C(  5  0  1)
  69-C(  6  1  0)  70-C(  1  1  3)  71-C(  6  6  5)  72-C(  1  6  0)
  73-C(  0  6  1)  74-C(  1  0  6)  75-C(  0  1  6)  76-C(  2  3  2)
  77-C(  3  2  2)  78-C(  7  5  7)  79-C(  5  7  7)  80-C(  6  0  1)
  81-C(  7  1  0)  82-C(  1  1  2)  83-C(  0  7  1)  84-C(  1  0  7)
  85-C(  1  2  1)  86-C(  2  1  1)  87-C(  2  2  0)  88-C(  0  2  2)
  89-C(  2  0  2)  90-C(  3  2  0)  91-C(  2  2  7)  92-C(  3  3  1)
  93-C(  2  3  0)  94-C(  0  3  2)  95-C(  2  0  3)  96-C(  0  2  3)
  97-C(  5  7  5)  98-C(  7  5  5)  99-C(  6  1  6) 100-C(  1  6  6)
 101-C(  3  0  2) 102-C(  4  2  0) 103-C(  2  2  6) 104-C(  4  4  2)
 105-C(  2  4  0) 106-C(  0  4  2) 107-C(  2  0  4) 108-C(  0  2  4)
 109-C(  4  6  4) 110-C(  6  4  4) 111-C(  6  2  6) 112-C(  2  6  6)
 113-C(  4  0  2) 114-C(  5  2  0) 115-C(  2  2  5) 116-C(  5  5  3)
 117-C(  2  5  0) 118-C(  0  5  2) 119-C(  2  0  5) 120-C(  0  2  5)
 121-C(  3  5  3) 122-C(  5  3  3) 123-C(  6  3  6) 124-C(  3  6  6)
 125-C(  5  0  2) 126-C(  6  2  0) 127-C(  2  2  4) 128-C(  0  6  2)
 129-C(  2  0  6) 130-C(  2  4  2) 131-C(  4  2  2) 132-C(  3  3  0)
 133-C(  0  3  3) 134-C(  3  0  3) 135-C(  4  3  0) 136-C(  3  3  7)
 137-C(  4  4  1) 138-C(  3  4  0) 139-C(  0  4  3) 140-C(  3  0  4)
 141-C(  0  3  4) 142-C(  4  7  4) 143-C(  7  4  4) 144-C(  5  1  5)
 145-C(  1  5  5) 146-C(  4  0  3) 147-C(  5  3  0) 148-C(  3  3  6)
 149-C(  0  5  3) 150-C(  3  0  5) 151-C(  3  6  3) 152-C(  6  3  3)
 153-R(  4  4  0) 154-R(  0  4  4) 155-R(  4  0  4) 156-C(  3  2  1)
 157-C(  2  1  7) 158-C(  2  3  1) 159-C(  1  2  7) 160-C(  1  3  2)
 161-C(  2  1  3) 162-C(  7  1  2) 163-C(  6  1  7) 164-C(  7  2  1)
 165-C(  1  7  2) 166-C(  3  1  2) 167-C(  1  2  3) 168-C(  4  2  1)
 169-C(  2  1  6) 170-C(  3  4  2) 171-C(  1  3  7) 172-C(  4  5  6)
 173-C(  6  4  7) 174-C(  7  6  2) 175-C(  5  7  1) 176-C(  1  4  2)
 177-C(  2  1  4) 178-C(  7  1  3) 179-C(  5  6  4) 180-C(  6  4  5)
 181-C(  6  2  7) 182-C(  2  7  6) 183-C(  3  7  1) 184-C(  6  2  1)
 185-C(  1  6  2) 186-C(  7  1  5) 187-C(  4  2  3) 188-C(  2  3  4)
 189-C(  1  5  7) 190-C(  7  6  4) 191-C(  4  7  6) 192-C(  5  2  1)
 193-C(  2  1  5) 194-C(  4  5  3) 195-C(  1  4  7) 196-C(  3  4  5)
 197-C(  6  3  7) 198-C(  7  6  3) 199-C(  4  7  1) 200-C(  1  5  2)
 201-C(  7  1  4) 202-C(  5  3  4) 203-C(  3  7  6) 204-C(  4  3  1)
 205-C(  3  2  7) 206-C(  3  4  1) 207-C(  2  3  7) 208-C(  1  4  3)
 209-C(  3  1  4) 210-C(  7  2  3) 211-C(  5  1  6) 212-C(  7  3  2)
 213-C(  2  7  3) 214-C(  4  1  3) 215-C(  1  3  4) 216-C(  5  3  1)
 217-C(  3  2  6) 218-C(  4  5  2) 219-C(  2  4  7) 220-C(  3  4  6)
 221-C(  5  3  7) 222-C(  6  5  2) 223-C(  4  6  1) 224-C(  1  5  3)
 225-C(  3  1  5) 226-C(  7  2  4) 227-C(  4  6  3) 228-C(  6  3  4)
 229-C(  5  2  6) 230-C(  2  6  5) 231-C(  4  7  2) 232-C(  6  3  2)
 233-C(  2  6  3) 234-C(  6  1  4) 235-C(  5  2  4) 236-C(  2  4  5)
 237-C(  1  4  6) 238-C(  7  5  3) 239-C(  3  7  5) 240-C(  6  3  1)
 241-C(  3  2  5) 242-C(  2  3  5) 243-C(  5  2  7) 244-C(  1  6  3)
 245-C(  3  1  6) 246-C(  3  5  2) 247-C(  5  2  3) 248-C(  5  3  2)
 249-C(  2  5  3) 250-C(  6  1  3) 251-C(  1  3  6) 252-C(  5  4  1)
 253-C(  4  3  7) 254-C(  1  5  4) 255-C(  4  1  5) 256-C(  7  4  3)
 257-C(  3  7  4) 258-C(  6  4  2) 259-C(  4  2  6) 260-C(  2  6  4)

 GCALCO - MAX INDICES DIRECT LATTICE VECTOR    14    14    14
 NO.OF VECTORS CREATED 6999 STARS  105 RMAX    54.93117 BOHR

 MATRIX SIZE: P(G)   19338, F(G)    3404, P(G) IRR   12974, F(G) IRR    4046
 MAX G-VECTOR INDEX FOR 1- AND 2-ELECTRON INTEGRALS 417

 TTTTTTTTTTTTTTTTTTTTTTTTTTTTTT INPUT       TELAPSE      323.51 TCPU      322.07
 TTTTTTTTTTTTTTTTTTTTTTTTTTTTTT SYMM        TELAPSE      323.51 TCPU      322.07

 ***** NEW REFERENCE GEOMETRY *****
 TTTTTTTTTTTTTTTTTTTTTTTTTTTTTT INT_SCREEN  TELAPSE      323.51 TCPU      322.07
 INFORMATION **** EXCBUF **** EXCH. BIPO BUFFER: WORDS USED =      118530
 TTTTTTTTTTTTTTTTTTTTTTTTTTTTTT INT_CALC    TELAPSE      323.52 TCPU      322.08
 CYCLE   0   ALPHA    5.145894  EPSILON    1.653967  DELTA    5.1459E+00
 TTTTTTTTTTTTTTTTTTTTTTTTTTTTTT MOQGAD      TELAPSE      330.07 TCPU      328.61
 TTTTTTTTTTTTTTTTTTTTTTTTTTTTTT CP_MONMON   TELAPSE      330.11 TCPU      328.64
 CYCLE   1   ALPHA    5.801529  EPSILON    1.737289  DELTA    6.5563E-01
 TTTTTTTTTTTTTTTTTTTTTTTTTTTTTT MOQGAD      TELAPSE      336.65 TCPU      335.16
 TTTTTTTTTTTTTTTTTTTTTTTTTTTTTT CP_MONMON   TELAPSE      336.69 TCPU      335.20
 CYCLE   2   ALPHA    6.284364  EPSILON    1.798650  DELTA    4.8284E-01
 TTTTTTTTTTTTTTTTTTTTTTTTTTTTTT MOQGAD      TELAPSE      343.28 TCPU      341.76
 TTTTTTTTTTTTTTTTTTTTTTTTTTTTTT CP_MONMON   TELAPSE      343.31 TCPU      341.79
 CYCLE   3   ALPHA    6.640462  EPSILON    1.843905  DELTA    3.5610E-01
 TTTTTTTTTTTTTTTTTTTTTTTTTTTTTT MOQGAD      TELAPSE      349.90 TCPU      348.36
 TTTTTTTTTTTTTTTTTTTTTTTTTTTTTT CP_MONMON   TELAPSE      349.94 TCPU      348.39
 CYCLE   4   ALPHA    6.903451  EPSILON    1.877327  DELTA    2.6299E-01
 TTTTTTTTTTTTTTTTTTTTTTTTTTTTTT MOQGAD      TELAPSE      356.50 TCPU      354.92
 TTTTTTTTTTTTTTTTTTTTTTTTTTTTTT CP_MONMON   TELAPSE      356.54 TCPU      354.96
 CYCLE   5   ALPHA    7.097926  EPSILON    1.902042  DELTA    1.9448E-01
 TTTTTTTTTTTTTTTTTTTTTTTTTTTTTT MOQGAD      TELAPSE      363.24 TCPU      361.64
 TTTTTTTTTTTTTTTTTTTTTTTTTTTTTT CP_MONMON   TELAPSE      363.28 TCPU      361.68
 CYCLE   6   ALPHA    7.241912  EPSILON    1.920341  DELTA    1.4399E-01
 TTTTTTTTTTTTTTTTTTTTTTTTTTTTTT MOQGAD      TELAPSE      369.84 TCPU      368.22
 TTTTTTTTTTTTTTTTTTTTTTTTTTTTTT CP_MONMON   TELAPSE      369.88 TCPU      368.25
 CYCLE   7   ALPHA    7.348638  EPSILON    1.933904  DELTA    1.0673E-01
 TTTTTTTTTTTTTTTTTTTTTTTTTTTTTT MOQGAD      TELAPSE      376.47 TCPU      374.81
 TTTTTTTTTTTTTTTTTTTTTTTTTTTTTT CP_MONMON   TELAPSE      376.51 TCPU      374.85
 CYCLE   8   ALPHA    7.427831  EPSILON    1.943968  DELTA    7.9193E-02
 TTTTTTTTTTTTTTTTTTTTTTTTTTTTTT MOQGAD      TELAPSE      383.06 TCPU      381.38
 TTTTTTTTTTTTTTTTTTTTTTTTTTTTTT CP_MONMON   TELAPSE      383.10 TCPU      381.42
 CYCLE   9   ALPHA    7.486651  EPSILON    1.951443  DELTA    5.8821E-02
 TTTTTTTTTTTTTTTTTTTTTTTTTTTTTT MOQGAD      TELAPSE      389.68 TCPU      387.97
 TTTTTTTTTTTTTTTTTTTTTTTTTTTTTT CP_MONMON   TELAPSE      389.72 TCPU      388.01
 CYCLE  10   ALPHA    7.530382  EPSILON    1.957001  DELTA    4.3731E-02
 TTTTTTTTTTTTTTTTTTTTTTTTTTTTTT MOQGAD      TELAPSE      396.31 TCPU      394.57
 TTTTTTTTTTTTTTTTTTTTTTTTTTTTTT CP_MONMON   TELAPSE      396.35 TCPU      394.61
 CYCLE  11   ALPHA    7.562922  EPSILON    1.961136  DELTA    3.2540E-02
 TTTTTTTTTTTTTTTTTTTTTTTTTTTTTT MOQGAD      TELAPSE      402.93 TCPU      401.16
 TTTTTTTTTTTTTTTTTTTTTTTTTTTTTT CP_MONMON   TELAPSE      402.97 TCPU      401.20
 CYCLE  12   ALPHA    7.587155  EPSILON    1.964216  DELTA    2.4233E-02
 TTTTTTTTTTTTTTTTTTTTTTTTTTTTTT MOQGAD      TELAPSE      409.52 TCPU      407.73
 TTTTTTTTTTTTTTTTTTTTTTTTTTTTTT CP_MONMON   TELAPSE      409.56 TCPU      407.76
 CYCLE  13   ALPHA    7.605215  EPSILON    1.966511  DELTA    1.8060E-02
 TTTTTTTTTTTTTTTTTTTTTTTTTTTTTT MOQGAD      TELAPSE      416.18 TCPU      414.35
 TTTTTTTTTTTTTTTTTTTTTTTTTTTTTT CP_MONMON   TELAPSE      416.21 TCPU      414.39
 CYCLE  14   ALPHA    7.618684  EPSILON    1.968223  DELTA    1.3469E-02
 TTTTTTTTTTTTTTTTTTTTTTTTTTTTTT MOQGAD      TELAPSE      422.79 TCPU      420.94
 TTTTTTTTTTTTTTTTTTTTTTTTTTTTTT CP_MONMON   TELAPSE      422.83 TCPU      420.98
 CYCLE  15   ALPHA    7.628736  EPSILON    1.969500  DELTA    1.0052E-02
 TTTTTTTTTTTTTTTTTTTTTTTTTTTTTT MOQGAD      TELAPSE      429.41 TCPU      427.53
 TTTTTTTTTTTTTTTTTTTTTTTTTTTTTT CP_MONMON   TELAPSE      429.45 TCPU      427.57
 CYCLE  16   ALPHA    7.636243  EPSILON    1.970454  DELTA    7.5065E-03
 TTTTTTTTTTTTTTTTTTTTTTTTTTTTTT MOQGAD      TELAPSE      436.05 TCPU      434.14
 TTTTTTTTTTTTTTTTTTTTTTTTTTTTTT CP_MONMON   TELAPSE      436.08 TCPU      434.18
 CYCLE  17   ALPHA    7.641851  EPSILON    1.971167  DELTA    5.6087E-03
 TTTTTTTTTTTTTTTTTTTTTTTTTTTTTT MOQGAD      TELAPSE      442.63 TCPU      440.69
 TTTTTTTTTTTTTTTTTTTTTTTTTTTTTT CP_MONMON   TELAPSE      442.67 TCPU      440.73
 CYCLE  18   ALPHA    7.646044  EPSILON    1.971700  DELTA    4.1930E-03
 TTTTTTTTTTTTTTTTTTTTTTTTTTTTTT MOQGAD      TELAPSE      449.21 TCPU      447.25
 TTTTTTTTTTTTTTTTTTTTTTTTTTTTTT CP_MONMON   TELAPSE      449.25 TCPU      447.28
 CYCLE  19   ALPHA    7.649181  EPSILON    1.972098  DELTA    3.1361E-03
 TTTTTTTTTTTTTTTTTTTTTTTTTTTTTT MOQGAD      TELAPSE      455.80 TCPU      453.81
 TTTTTTTTTTTTTTTTTTTTTTTTTTTTTT CP_MONMON   TELAPSE      455.83 TCPU      453.84
 CYCLE  20   ALPHA    7.651527  EPSILON    1.972397  DELTA    2.3468E-03
 TTTTTTTTTTTTTTTTTTTTTTTTTTTTTT MOQGAD      TELAPSE      462.46 TCPU      460.44
 TTTTTTTTTTTTTTTTTTTTTTTTTTTTTT CP_MONMON   TELAPSE      462.50 TCPU      460.48
 CYCLE  21   ALPHA    7.653284  EPSILON    1.972620  DELTA    1.7568E-03
 TTTTTTTTTTTTTTTTTTTTTTTTTTTTTT MOQGAD      TELAPSE      469.09 TCPU      467.05
 TTTTTTTTTTTTTTTTTTTTTTTTTTTTTT CP_MONMON   TELAPSE      469.14 TCPU      467.09
 CYCLE  22   ALPHA    7.654600  EPSILON    1.972787  DELTA    1.3157E-03
 TTTTTTTTTTTTTTTTTTTTTTTTTTTTTT MOQGAD      TELAPSE      475.66 TCPU      473.59
 TTTTTTTTTTTTTTTTTTTTTTTTTTTTTT CP_MONMON   TELAPSE      475.69 TCPU      473.62
 CYCLE  23   ALPHA    7.655586  EPSILON    1.972912  DELTA    9.8572E-04
 TTTTTTTTTTTTTTTTTTTTTTTTTTTTTT CP_SC       TELAPSE      475.71 TCPU      473.64

 *******************************************************************************

 POLARIZABILITY (ALPHA), DIELECTRIC (EPSILON) AND FIRST-ORDER ELECTRIC
 SUSCEPTIBILITY (CHI(1)) TENSORS (INDEPENDENT COMPONENTS)

  COMPONENT    ALPHA(REAL, IMAGINARY)         EPSILON       CHI(1)
     XX        7.6556        0.0000        1.9729        0.9729
     XY        0.0000        0.0000        0.0000        0.0000
     XZ        0.0000        0.0000        0.0000        0.0000
     YY        7.6556        0.0000        1.9729        0.9729
     YZ        0.0000        0.0000        0.0000        0.0000
     ZZ        7.6556        0.0000        1.9729        0.9729

 DIELECTRIC TENSOR

 TENSOR IN PRINCIPAL AXES SYSTEM
 AA  1.972912E+00 BB  1.972912E+00 CC  1.972912E+00

 REFRACTIVE INDICES 
 AA  1.404604E+00 BB  1.404604E+00 CC  1.404604E+00

 OPTICALLY ISOTROPIC CRYSTAL

 EPSILON=N**2=1+CHI(1)=1+ALPHA*4*PI/V,   4*PI/V=   0.12709 BOHR**(-3)
 ALPHA IN BOHR**3; EPSILON AND CHI(1) ARE DIMENSIONLESS.
 *******************************************************************************

 *******************************************************************************

 FIRST HYPERPOLARIZABILITY (BETA) AND SECOND ELECTRIC SUSCEPTIBILITY (CHI(2))
 TENSORS (INDEPENDENT COMPONENTS)

  COMPONENT      BETA                        CHI(2)       d(MKS)       d(cgs)
 *******************************************************************************

     XXX        0.0000  (      0.0000)       0.0000       0.0000       0.0000
     XXY       -0.0000  (      0.0000)      -0.0000      -0.0000      -0.0000
     XXZ        0.0000  (      0.0000)       0.0000       0.0000       0.0000
     XYY        0.0000  (      0.0000)       0.0000       0.0000       0.0000
     XYZ        0.0000  (      0.0000)       0.0000       0.0000       0.0000
     XZZ        0.0000  (      0.0000)       0.0000       0.0000       0.0000
     YYY        0.0000  (      0.0000)       0.0000       0.0000       0.0000
     YYZ        0.0000  (      0.0000)       0.0000       0.0000       0.0000
     YZZ        0.0000  (      0.0000)       0.0000       0.0000       0.0000
     ZZZ        0.0000  (      0.0000)       0.0000       0.0000       0.0000
 *******************************************************************************
 CHI(2) = BETA*2PI/V

 BETA AND CHI(2) IN A.U.:    [BETA] = M**(-1/2) L**(7/2) T
                             [CHI(2)] = 1/F
                             (L=LENGTH, M=MASS, T=TIME, F=FIELD INTENSITY)

 ELECTRIC SUSCEPTIBILITY IN THE SECOND HARMONIC GENERATION (SHG) CONVENTION IS:
                   d(A.U.)= 1/2 CHI(2)
                   d(MKS) = d(A.U.)/0.514220632 pm/V
                   d(CGS) = d(A.U.)/(4PI*1.7152535)  10**(-7) esu

 FIELD INTENSITY: 1 A.U. = 0.514220632*10**(11) V/m = 1.7152535*10**7 esu
 BEWARE:                CHI(2)=P/(E0*F**2)   (MKS)
                        CHI(2)=P/F**2        (CGS)
 WHERE P IS THE POLARIZATION VECTOR AND F IS THE APPLIED ELECTRIC FIELD.
 CONSISTENCY IS  PRESERVED BY MULTIPLYING THE CGS VALUE TIMES THE PERMITTIVITY
 OF THE VACUUM, E0 (CONVERSION FACTORS FROM www.physics.nist.gov/constants).
 IN PARENTHESIS: BETA BEFORE SYMMETRIZATION.

 *******************************************************************************

 INFORMATION **** CP2_DRIVER **** CONVERGENCE ON PSEUDO DE: 10**          -3
 INFORMATION **** CP2_DRIVER **** MAX NUMBER OF CPHF/CPKS CYCLES         200
 INFORMATION **** CP2_DRIVER **** CPHF/CPKS DAMPING PERCENTAGE:          60

 *******************************************************************************

 ELECTRIC FIELD APPLIED ALONG CARTESIAN DIRECTIONS XX

 *******************************************************************************
 NEW GRID IN RECIPROCAL SPACE
 *******************************************************************************
 POINTS IN THE IBZ                 260 SHRINKING FACTORS               8  8  8
 *******************************************************************************
 *** K POINTS COORDINATES (OBLIQUE COORDINATES IN UNITS OF SHRINK FAC. )
   1-R(  0  0  0)   2-C(  1  0  0)   3-C(  0  0  7)   4-C(  1  1  1)
   5-C(  0  1  0)   6-C(  2  0  0)   7-C(  0  0  6)   8-C(  2  2  2)
   9-C(  0  2  0)  10-C(  3  0  0)  11-C(  0  0  5)  12-C(  3  3  3)
  13-C(  0  3  0)  14-R(  4  0  0)  15-R(  0  0  4)  16-R(  4  4  4)
  17-R(  0  4  0)  18-C(  1  1  0)  19-C(  0  1  1)  20-C(  1  0  1)
  21-C(  2  1  0)  22-C(  1  1  7)  23-C(  2  2  1)  24-C(  1  2  0)
  25-C(  0  2  1)  26-C(  1  0  2)  27-C(  0  1  2)  28-C(  6  7  6)
  29-C(  7  6  6)  30-C(  7  1  7)  31-C(  1  7  7)  32-C(  2  0  1)
  33-C(  3  1  0)  34-C(  1  1  6)  35-C(  3  3  2)  36-C(  1  3  0)
  37-C(  0  3  1)  38-C(  1  0  3)  39-C(  0  1  3)  40-C(  5  6  5)
  41-C(  6  5  5)  42-C(  7  2  7)  43-C(  2  7  7)  44-C(  3  0  1)
  45-C(  4  1  0)  46-C(  1  1  5)  47-C(  4  4  3)  48-C(  1  4  0)
  49-C(  0  4  1)  50-C(  1  0  4)  51-C(  0  1  4)  52-C(  4  5  4)
  53-C(  5  4  4)  54-C(  7  3  7)  55-C(  3  7  7)  56-C(  4  0  1)
  57-C(  5  1  0)  58-C(  1  1  4)  59-C(  5  5  4)  60-C(  1  5  0)
  61-C(  0  5  1)  62-C(  1  0  5)  63-C(  0  1  5)  64-C(  3  4  3)
  65-C(  4  3  3)  66-C(  7  4  7)  67-C(  4  7  7)  68-C(  5  0  1)
  69-C(  6  1  0)  70-C(  1  1  3)  71-C(  6  6  5)  72-C(  1  6  0)
  73-C(  0  6  1)  74-C(  1  0  6)  75-C(  0  1  6)  76-C(  2  3  2)
  77-C(  3  2  2)  78-C(  7  5  7)  79-C(  5  7  7)  80-C(  6  0  1)
  81-C(  7  1  0)  82-C(  1  1  2)  83-C(  0  7  1)  84-C(  1  0  7)
  85-C(  1  2  1)  86-C(  2  1  1)  87-C(  2  2  0)  88-C(  0  2  2)
  89-C(  2  0  2)  90-C(  3  2  0)  91-C(  2  2  7)  92-C(  3  3  1)
  93-C(  2  3  0)  94-C(  0  3  2)  95-C(  2  0  3)  96-C(  0  2  3)
  97-C(  5  7  5)  98-C(  7  5  5)  99-C(  6  1  6) 100-C(  1  6  6)
 101-C(  3  0  2) 102-C(  4  2  0) 103-C(  2  2  6) 104-C(  4  4  2)
 105-C(  2  4  0) 106-C(  0  4  2) 107-C(  2  0  4) 108-C(  0  2  4)
 109-C(  4  6  4) 110-C(  6  4  4) 111-C(  6  2  6) 112-C(  2  6  6)
 113-C(  4  0  2) 114-C(  5  2  0) 115-C(  2  2  5) 116-C(  5  5  3)
 117-C(  2  5  0) 118-C(  0  5  2) 119-C(  2  0  5) 120-C(  0  2  5)
 121-C(  3  5  3) 122-C(  5  3  3) 123-C(  6  3  6) 124-C(  3  6  6)
 125-C(  5  0  2) 126-C(  6  2  0) 127-C(  2  2  4) 128-C(  0  6  2)
 129-C(  2  0  6) 130-C(  2  4  2) 131-C(  4  2  2) 132-C(  3  3  0)
 133-C(  0  3  3) 134-C(  3  0  3) 135-C(  4  3  0) 136-C(  3  3  7)
 137-C(  4  4  1) 138-C(  3  4  0) 139-C(  0  4  3) 140-C(  3  0  4)
 141-C(  0  3  4) 142-C(  4  7  4) 143-C(  7  4  4) 144-C(  5  1  5)
 145-C(  1  5  5) 146-C(  4  0  3) 147-C(  5  3  0) 148-C(  3  3  6)
 149-C(  0  5  3) 150-C(  3  0  5) 151-C(  3  6  3) 152-C(  6  3  3)
 153-R(  4  4  0) 154-R(  0  4  4) 155-R(  4  0  4) 156-C(  3  2  1)
[...]
 BOTTOM OF VIRTUAL BANDS - BAND     11; K    1; EIG  4.9472682E-01 AU
 TTTTTTTTTTTTTTTTTTTTTTTTTTTTTT PDIG        TELAPSE     3014.93 TCPU     2993.22
 TTTTTTTTTTTTTTTTTTTTTTTTTTTTTT MOQGAD      TELAPSE     3014.93 TCPU     2993.22
 TTTTTTTTTTTTTTTTTTTTTTTTTTTTTT SHELLX2     TELAPSE     3015.63 TCPU     2993.92
 TTTTTTTTTTTTTTTTTTTTTTTTTTTTTT MONMO3      TELAPSE     3015.64 TCPU     2993.93
 CYC   8 ETOT(AU) -2.712596204085E+02 DETOT -8.48E-07 tst  2.56E-07 PX  5.55E-04
 TTTTTTTTTTTTTTTTTTTTTTTTTTTTTT FDIK        TELAPSE     3015.64 TCPU     2993.93
 INSULATING STATE
 TOP OF VALENCE BANDS -    BAND     10; K   12; EIG -1.4701902E-01 AU
 TOP OF VALENCE BANDS -    BAND     10; K    1; EIG -1.5270620E-01 AU
 BOTTOM OF VIRTUAL BANDS - BAND     11; K    1; EIG  4.9501906E-01 AU
 TTTTTTTTTTTTTTTTTTTTTTTTTTTTTT PDIG        TELAPSE     3015.64 TCPU     2993.93
 TTTTTTTTTTTTTTTTTTTTTTTTTTTTTT MOQGAD      TELAPSE     3015.65 TCPU     2993.93
 TTTTTTTTTTTTTTTTTTTTTTTTTTTTTT SHELLX2     TELAPSE     3016.36 TCPU     2994.65
 TTTTTTTTTTTTTTTTTTTTTTTTTTTTTT MONMO3      TELAPSE     3016.37 TCPU     2994.65
 CYC   9 ETOT(AU) -2.712596206057E+02 DETOT -1.97E-07 tst  5.20E-08 PX  2.45E-04
 TTTTTTTTTTTTTTTTTTTTTTTTTTTTTT FDIK        TELAPSE     3016.37 TCPU     2994.65
 INSULATING STATE
 TOP OF VALENCE BANDS -    BAND     10; K   12; EIG -1.4702310E-01 AU
 TOP OF VALENCE BANDS -    BAND     10; K    1; EIG -1.5272274E-01 AU
 BOTTOM OF VIRTUAL BANDS - BAND     11; K    1; EIG  4.9514745E-01 AU
 TTTTTTTTTTTTTTTTTTTTTTTTTTTTTT PDIG        TELAPSE     3016.37 TCPU     2994.65
 TTTTTTTTTTTTTTTTTTTTTTTTTTTTTT MOQGAD      TELAPSE     3016.37 TCPU     2994.66
 TTTTTTTTTTTTTTTTTTTTTTTTTTTTTT SHELLX2     TELAPSE     3017.10 TCPU     2995.38
 TTTTTTTTTTTTTTTTTTTTTTTTTTTTTT MONMO3      TELAPSE     3017.11 TCPU     2995.39
 CYC  10 ETOT(AU) -2.712596206576E+02 DETOT -5.19E-08 tst  1.06E-08 PX  1.08E-04
 TTTTTTTTTTTTTTTTTTTTTTTTTTTTTT FDIK        TELAPSE     3017.11 TCPU     2995.39
 INSULATING STATE
 TOP OF VALENCE BANDS -    BAND     10; K   12; EIG -1.4702398E-01 AU
 TOP OF VALENCE BANDS -    BAND     10; K    1; EIG -1.5272923E-01 AU
 BOTTOM OF VIRTUAL BANDS - BAND     11; K    1; EIG  4.9520436E-01 AU
 TTTTTTTTTTTTTTTTTTTTTTTTTTTTTT PDIG        TELAPSE     3017.11 TCPU     2995.39
 TTTTTTTTTTTTTTTTTTTTTTTTTTTTTT MOQGAD      TELAPSE     3017.11 TCPU     2995.39
 TTTTTTTTTTTTTTTTTTTTTTTTTTTTTT SHELLX2     TELAPSE     3017.81 TCPU     2996.09
 TTTTTTTTTTTTTTTTTTTTTTTTTTTTTT MONMO3      TELAPSE     3017.81 TCPU     2996.09
 CYC  11 ETOT(AU) -2.712596206739E+02 DETOT -1.62E-08 tst  2.16E-09 PX  4.80E-05
 TTTTTTTTTTTTTTTTTTTTTTTTTTTTTT FDIK        TELAPSE     3017.82 TCPU     2996.09
 INSULATING STATE
 TOP OF VALENCE BANDS -    BAND     10; K   12; EIG -1.4702420E-01 AU
 TOP OF VALENCE BANDS -    BAND     10; K    1; EIG -1.5273197E-01 AU
 BOTTOM OF VIRTUAL BANDS - BAND     11; K    1; EIG  4.9522972E-01 AU
 TTTTTTTTTTTTTTTTTTTTTTTTTTTTTT PDIG        TELAPSE     3017.82 TCPU     2996.10
 TTTTTTTTTTTTTTTTTTTTTTTTTTTTTT MOQGAD      TELAPSE     3017.82 TCPU     2996.10
 TTTTTTTTTTTTTTTTTTTTTTTTTTTTTT SHELLX2     TELAPSE     3018.51 TCPU     2996.79
 TTTTTTTTTTTTTTTTTTTTTTTTTTTTTT MONMO3      TELAPSE     3018.51 TCPU     2996.79
 CYC  12 ETOT(AU) -2.712596206796E+02 DETOT -5.76E-09 tst  4.41E-10 PX  2.13E-05
 TTTTTTTTTTTTTTTTTTTTTTTTTTTTTT FDIK        TELAPSE     3018.52 TCPU     2996.79
 INSULATING STATE
 TOP OF VALENCE BANDS -    BAND     10; K   12; EIG -1.4702430E-01 AU
 TOP OF VALENCE BANDS -    BAND     10; K    1; EIG -1.5273321E-01 AU
 BOTTOM OF VIRTUAL BANDS - BAND     11; K    1; EIG  4.9524107E-01 AU
 TTTTTTTTTTTTTTTTTTTTTTTTTTTTTT PDIG        TELAPSE     3018.52 TCPU     2996.79
 TTTTTTTTTTTTTTTTTTTTTTTTTTTTTT MOQGAD      TELAPSE     3018.52 TCPU     2996.80
 TTTTTTTTTTTTTTTTTTTTTTTTTTTTTT SHELLX2     TELAPSE     3019.21 TCPU     2997.48
 TTTTTTTTTTTTTTTTTTTTTTTTTTTTTT MONMO3      TELAPSE     3019.22 TCPU     2997.49
 CYC  13 ETOT(AU) -2.712596206819E+02 DETOT -2.32E-09 tst  9.03E-11 PX  9.44E-06
 TTTTTTTTTTTTTTTTTTTTTTTTTTTTTT FDIK        TELAPSE     3019.22 TCPU     2997.49
 INSULATING STATE
 TOP OF VALENCE BANDS -    BAND     10; K   12; EIG -1.4702437E-01 AU
 TOP OF VALENCE BANDS -    BAND     10; K    1; EIG -1.5273379E-01 AU
 BOTTOM OF VIRTUAL BANDS - BAND     11; K    1; EIG  4.9524617E-01 AU
 TTTTTTTTTTTTTTTTTTTTTTTTTTTTTT PDIG        TELAPSE     3019.22 TCPU     2997.49
 TTTTTTTTTTTTTTTTTTTTTTTTTTTTTT MOQGAD      TELAPSE     3019.22 TCPU     2997.50
 TTTTTTTTTTTTTTTTTTTTTTTTTTTTTT SHELLX2     TELAPSE     3019.92 TCPU     2998.19
 TTTTTTTTTTTTTTTTTTTTTTTTTTTTTT MONMO3      TELAPSE     3019.93 TCPU     2998.20
 CYC  14 ETOT(AU) -2.712596206829E+02 DETOT -9.61E-10 tst  1.85E-11 PX  4.19E-06
 TTTTTTTTTTTTTTTTTTTTTTTTTTTTTT FDIK        TELAPSE     3019.93 TCPU     2998.20
 INSULATING STATE
 TOP OF VALENCE BANDS -    BAND     10; K   12; EIG -1.4702442E-01 AU
 TOP OF VALENCE BANDS -    BAND     10; K    1; EIG -1.5273407E-01 AU
 BOTTOM OF VIRTUAL BANDS - BAND     11; K    1; EIG  4.9524847E-01 AU
 TTTTTTTTTTTTTTTTTTTTTTTTTTTTTT PDIG        TELAPSE     3019.93 TCPU     2998.20
 TTTTTTTTTTTTTTTTTTTTTTTTTTTTTT MOQGAD      TELAPSE     3019.93 TCPU     2998.20
 TTTTTTTTTTTTTTTTTTTTTTTTTTTTTT SHELLX2     TELAPSE     3020.62 TCPU     2998.89
 TTTTTTTTTTTTTTTTTTTTTTTTTTTTTT MONMO3      TELAPSE     3020.62 TCPU     2998.89
 CYC  15 ETOT(AU) -2.712596206833E+02 DETOT -4.07E-10 tst  3.81E-12 PX  1.86E-06
 TTTTTTTTTTTTTTTTTTTTTTTTTTTTTT FDIK        TELAPSE     3020.63 TCPU     2998.89
 INSULATING STATE
 TOP OF VALENCE BANDS -    BAND     10; K   12; EIG -1.4702445E-01 AU
 TOP OF VALENCE BANDS -    BAND     10; K    1; EIG -1.5273421E-01 AU
 BOTTOM OF VIRTUAL BANDS - BAND     11; K    1; EIG  4.9524951E-01 AU
 TTTTTTTTTTTTTTTTTTTTTTTTTTTTTT PDIG        TELAPSE     3020.63 TCPU     2998.89
 TTTTTTTTTTTTTTTTTTTTTTTTTTTTTT MOQGAD      TELAPSE     3020.63 TCPU     2998.90
 TTTTTTTTTTTTTTTTTTTTTTTTTTTTTT SHELLX2     TELAPSE     3021.32 TCPU     2999.58
 TTTTTTTTTTTTTTTTTTTTTTTTTTTTTT MONMO3      TELAPSE     3021.33 TCPU     2999.59
 CYC  16 ETOT(AU) -2.712596206835E+02 DETOT -1.80E-10 tst  7.85E-13 PX  8.29E-07
 TTTTTTTTTTTTTTTTTTTTTTTTTTTTTT FDIK        TELAPSE     3021.33 TCPU     2999.59
 INSULATING STATE
 TOP OF VALENCE BANDS -    BAND     10; K   12; EIG -1.4702447E-01 AU
 TOP OF VALENCE BANDS -    BAND     10; K    1; EIG -1.5273427E-01 AU
 BOTTOM OF VIRTUAL BANDS - BAND     11; K    1; EIG  4.9524998E-01 AU
 TTTTTTTTTTTTTTTTTTTTTTTTTTTTTT PDIG        TELAPSE     3021.33 TCPU     2999.59
 TTTTTTTTTTTTTTTTTTTTTTTTTTTTTT MOQGAD      TELAPSE     3021.33 TCPU     2999.60
 TTTTTTTTTTTTTTTTTTTTTTTTTTTTTT SHELLX2     TELAPSE     3022.04 TCPU     3000.31
 TTTTTTTTTTTTTTTTTTTTTTTTTTTTTT MONMO3      TELAPSE     3022.05 TCPU     3000.31
 CYC  17 ETOT(AU) -2.712596206836E+02 DETOT -7.78E-11 tst  1.63E-13 PX  3.70E-07
 TTTTTTTTTTTTTTTTTTTTTTTTTTTTTT FDIK        TELAPSE     3022.05 TCPU     3000.31
 INSULATING STATE
 TOP OF VALENCE BANDS -    BAND     10; K   12; EIG -1.4702449E-01 AU
 TOP OF VALENCE BANDS -    BAND     10; K    1; EIG -1.5273431E-01 AU
 BOTTOM OF VIRTUAL BANDS - BAND     11; K    1; EIG  4.9525019E-01 AU
 TTTTTTTTTTTTTTTTTTTTTTTTTTTTTT PDIG        TELAPSE     3022.05 TCPU     3000.31
 TTTTTTTTTTTTTTTTTTTTTTTTTTTTTT MOQGAD      TELAPSE     3022.05 TCPU     3000.32
 TTTTTTTTTTTTTTTTTTTTTTTTTTTTTT SHELLX2     TELAPSE     3022.75 TCPU     3001.01
 ::: TOTAL   ENERGY                               -2.7125962068360E+02
 ::: VIRIAL COEFFICIENT                            9.9266001933155E-01
 TTTTTTTTTTTTTTTTTTTTTTTTTTTTTT MONMO3      TELAPSE     3022.75 TCPU     3001.01
 CYC  18 ETOT(AU) -2.712596206836E+02 DETOT -3.71E-11 tst  3.38E-14 PX  3.70E-07

 == SCF ENDED - CONVERGENCE ON ENERGY      E(AU) -2.7125962068360E+02 CYCLES  18

 TOTAL ENERGY(HF)(AU)(  18) -2.7125962068360E+02 DE-3.7E-11 tst 3.4E-14 PX 3.7E-07

 *******************************************************************************
 *                             FORCE CALCULATION                               *
 *******************************************************************************

 INFORMATION **** EXCPOG **** EXCH. BIPO BUFFER LENGTH (WORDS) =      474120
 INFORMATION **** GENPOG **** BIPO BUFFER LENGTH (WORDS) =       26500
 TTTTTTTTTTTTTTTTTTTTTTTTTTTTTT SHELXG      TELAPSE     3027.55 TCPU     3005.78

 CARTESIAN FORCES IN HARTREE/BOHR (ANALYTICAL)
   ATOM                     X                   Y                   Z
   1   8             2.251722485658E-15  2.253168088555E-15  2.271756356191E-15
   2  12            -2.251722485658E-15 -2.252445287107E-15 -2.270780574236E-15

 RESULTANT FORCE     0.000000000000E+00  7.228014483238E-19  9.757819552370E-19

 THERE ARE NO SYMMETRY ALLOWED DIRECTIONS
 TTTTTTTTTTTTTTTTTTTTTTTTTTTTTT TOTGRA      TELAPSE     3027.57 TCPU     3005.81

 HHHHHHHHHHHHHHHHHHHHHHHHHHHHHHHHHHHHHHHHHHHHHHHHHHHHHHHHHHHHHHHHHHHHHHHHHHHHHHH
                   FORCE CONSTANT MATRIX - NUMERICAL ESTIMATE
 HHHHHHHHHHHHHHHHHHHHHHHHHHHHHHHHHHHHHHHHHHHHHHHHHHHHHHHHHHHHHHHHHHHHHHHHHHHHHHH
 MAX ABS(DGRAD): MAXIMUM ABSOLUTE GRADIENT DIFFERENCE WITH RESPECT TO
                 THE CENTRAL POINT
 DE:             ENERGY DIFFERENCE WITH RESPECT TO THE CENTRAL POINT
                 (DE IS EXPECTED TO BE POSITIVE FOR ALL DISPLACEMENTS)

   ATOM      MAX ABS(DGRAD)       TOTAL ENERGY (AU)  N.CYC      DE       SYM
    CENTRAL POINT             -2.712596206836E+02    18     0.0000E+00    48
    2 MG DX   1.0416E-03      -2.712596177300E+02     8     2.9536E-06     8
    2 MG DY                   GENERATED FROM A PREVIOUS LINE
    2 MG DZ                   GENERATED FROM A PREVIOUS LINE

 GCALCO - MAX INDICES DIRECT LATTICE VECTOR    14    14    14
 NO.OF VECTORS CREATED 6999 STARS  105 RMAX    54.93117 BOHR

 CAPPA:IS1  8;IS2  8;IS3  8; K PTS MONK NET  29; SYMMOPS:K SPACE  48;G SPACE  48


 MATRIX SIZE: P(G)   19338, F(G)    3404, P(G) IRR     790, F(G) IRR     398
 MAX G-VECTOR INDEX FOR 1- AND 2-ELECTRON INTEGRALS 417

 TTTTTTTTTTTTTTTTTTTTTTTTTTTTTT INPUT       TELAPSE     3056.68 TCPU     3034.78

 THERE ARE NO SYMMETRY ALLOWED DIRECTIONS
 TTTTTTTTTTTTTTTTTTTTTTTTTTTTTT SYMM        TELAPSE     3056.68 TCPU     3034.78
 TTTTTTTTTTTTTTTTTTTTTTTTTTTTTT INT_SCREEN  TELAPSE     3056.68 TCPU     3034.78

 ATOMIC BORN CHARGE TENSOR (UNITS OF e, ELECTRON CHARGE).
 DYNAMIC CHARGE = 1/3 * TRACE .

 ATOM   1 O  DYNAMIC CHARGE    -2.058674

              1           2           3
   1    -2.0587E+00 -1.6049E-35  1.6049E-35
   2     0.0000E+00 -2.0587E+00  0.0000E+00
   3     0.0000E+00  0.0000E+00 -2.0587E+00

 ATOM   2 MG DYNAMIC CHARGE     2.058674

              1           2           3
   1     2.0587E+00  1.6049E-35 -1.6049E-35
   2     0.0000E+00  2.0587E+00  0.0000E+00
   3     0.0000E+00  0.0000E+00  2.0587E+00

 +++ SYMMETRY ADAPTION OF VIBRATIONAL MODES +++

 SYMMETRY INFORMATION:
 K-LITTLE GROUP: CLASS TABLE, CHARACTER TABLE.
 IRREP-(DIMENSION, NO. IRREDUCIBLE SETS)
 [WARNINGS: (1) ONLY ACTIVE IRREPS ARE GENERATED AND LISTED.
            (2) ONLY RELEVANT CLASSES ARE CONSIDERED IN THE CHARACTER TABLE
            (3) SYMBOLS MAY NOT FULLY COINCIDE WITH THOSE FROM TEXT BOOKS.]

 (P, D, RP, RD, STAND FOR PAIRING, DOUBLING, REAL PAIRING AND REAL DOUBLING 
 OF THE IRREPS (SEE MANUAL))

 CLASS  | GROUP OPERATORS (SEE SYMMOPS KEYWORD)
 --------------------------------------------------------------------
 C4     |   2;   3;  19;  21;  22;  18;
 C2     |   4;   5;   7;
 C2'    |   6;   8;  24;  23;  17;  20;
 C3     |   9;  16;  12;  13;  15;  10;  11;  14;
 I      |  25;
 S4     |  26;  27;  43;  45;  46;  42;
 SGH    |  28;  29;  31;
 SGD    |  30;  32;  48;  47;  41;  44;
 S6     |  33;  40;  36;  37;  39;  34;  35;  38;

 IRREP/CLA      E     C4     C2    C2'     C3      I     S4    SGH    SGD     S6
 -------------------------------------------------------------------------------
  MULTIP |      1      6      3      6      8      1      6      3      6      8
 -------------------------------------------------------------------------------
    Fu   |   3.00   1.00  -1.00  -1.00   0.00  -3.00  -1.00   1.00   1.00   0.00
 

 Fu -(3,   2);

 BORN CHARGE VECTOR IN THE BASIS OF NORMAL MODES (UNITS OF e*M_E**(-1/2) ).
 e AND M_E ARE UNITS OF ELECTRON CHARGE AND MASS, RESPECTIVELY.

 MODE         X              Y              Z
   1    0.00000E+00    0.00000E+00    0.00000E+00
   2    0.00000E+00    0.00000E+00    0.00000E+00
   3    0.00000E+00    0.00000E+00    0.00000E+00
   4   -0.12135E-36   -0.15566E-01    0.00000E+00
   5   -0.15566E-01    0.00000E+00    0.00000E+00
   6    0.12135E-36    0.00000E+00   -0.15566E-01

 HHHHHHHHHHHHHHHHHHHHHHHHHHHHHHHHHHHHHHHHHHHHHHHHHHHHHHHHHHHHHHHHHHHHHHHHHHHHHH
 VIBRATIONAL CONTRIBUTIONS TO THE STATIC DIELECTRIC TENSOR (OSCILLATOR
 STRENGTHS) ARE PURE NUMBERS. THEY ARE COMPUTED FOR EACH nth MODE AS:

   f_(n,ij) = 1 / (4 * pi * eps0) * 4 * pi / V * Z_(n,i) * Z_(n,j) / nu_n**2

 WHERE:
  1/(4*pi*eps0)  1 A.U. [M*L**3*T**(-4)*C**(-2)]
  V              CELL VOLUME (BOHR**3) [L**3]
  Z_(n,i)        ith COMPONENT OF BORN CHARGE VECTOR IN THE BASIS
                 OF NORMAL MODES ( e*M_E**(-1/2) ) [C*T*M**(-1/2)]
  nu_n           FREQUENCY (HARTREE) [T**(-1)]
  e, M_E         UNITS OF ELECTRON CHARGE AND MASS, RESPECTIVELY
  M, L, T, C     MASS, LENGTH, TIME, CURRENT, RESPECTIVELY

 HHHHHHHHHHHHHHHHHHHHHHHHHHHHHHHHHHHHHHHHHHHHHHHHHHHHHHHHHHHHHHHHHHHHHHHHHHHHHH

 MODE      CARTESIAN AXES SYSTEM

   4       0.00000    0.00000    0.00000
           0.00000    2.93153    0.00000
           0.00000    0.00000    0.00000

   5       2.93153    0.00000    0.00000
           0.00000    0.00000    0.00000
           0.00000    0.00000    0.00000

   6       0.00000    0.00000   -0.00000
           0.00000    0.00000    0.00000
          -0.00000    0.00000    2.93153

 SUM TENSOR OF THE VIBRATIONAL CONTRIBUTIONS TO THE STATIC DIELECTRIC     TENSOR

           2.93153    0.00000   -0.00000
           0.00000    2.93153    0.00000
          -0.00000    0.00000    2.93153

 INTEGRATED IR INTENSITIES, IN UNITS OF KM/MOL, ARE COMPUTED UNDER THE
 HYPOTHESIS OF ISOTROPIC RESPONSE (I.E. POWDER SAMPLE):

   INTENS_n = 1 / (4 * pi * eps0) * pi * N_AV / 3 / c**2 *
                             * d_n * ( Z_(n,x)**2 + Z_(n,y)**2 + Z_(n,z)**2 )
            = 0.17770712E+07 * d_n * ( Z_(n,x)**2 + Z_(n,y)**2 + Z_(n,z)**2 )

 WHERE:
  1/(4*pi*eps0)  1 A.U. [M*L**3*T**(-4)*C**(-2)]
  N_AV           AVOGADRO'S NUMBER [QM**(-1)]
  c              SPEED OF LIGHT [L*T**(-1)]
  d_n            DEGENERACY OF THE MODE
  Z_(n,x)        xth COMPONENT OF BORN CHARGE VECTOR IN THE BASIS
                 OF NORMAL MODES ( e*M_E**(-1/2) ) [C*T*M**(-1/2)]
  M,L,T,C,QM     MASS, LENGTH, TIME, CURRENT, QUANTITY OF MATTER, RESPECTIVELY

 HHHHHHHHHHHHHHHHHHHHHHHHHHHHHHHHHHHHHHHHHHHHHHHHHHHHHHHHHHHHHHHHHHHHHHHHHHHHHH
 EIGENVALUES (EIGV) OF THE MASS WEIGHTED HESSIAN MATRIX AND HARMONIC TRANSVERSE
 OPTICAL (TO) FREQUENCIES. IRREP LABELS REFER TO SYMMETRY REPRESENTATION
 ANALYSIS; A AND I INDICATE WHETHER THE MODE IS ACTIVE OR INACTIVE,
 RESPECTIVELY, FOR IR AND RAMAN; INTEGRATED IR INTENSITIES IN BRACKETS.

 CONVERSION FACTORS FOR FREQUENCIES:
      1 CM**(-1) =   0.2194746E+06 HARTREE
      1 THZ      =   0.2997925E-01 CM**(-1)

 HHHHHHHHHHHHHHHHHHHHHHHHHHHHHHHHHHHHHHHHHHHHHHHHHHHHHHHHHHHHHHHHHHHHHHHHHHHHHH

    MODES         EIGV          FREQUENCIES     IRREP  IR   INTENS    RAMAN
             (HARTREE**2)   (CM**-1)     (THZ)             (KM/MOL)
    1-   3   -0.4758E-21      0.0000    0.0000  (Fu )   A (     0.00)   I
    4-   6    0.1050E-04    711.2990   21.3242  (Fu )   A (  1291.70)   I

 <RAMAN><RAMAN><RAMAN><RAMAN><RAMAN><RAMAN><RAMAN><RAMAN><RAMAN><RAMAN><RAMAN>
 <RAMAN><RAMAN><RAMAN><RAMAN><RAMAN><RAMAN><RAMAN><RAMAN><RAMAN><RAMAN><RAMAN>

 RAMAN INTENSITIES UNDER PLACZECK APPROXIMATION ARE COMPUTED AS:

  DIRECTIONAL (SINGLE CRYSTAL) :

     I_ij(n)= VOLUME*X(n,i,j)**2

  ISOTROPIC (POLYCRYSTALLINE POWDER) :

     G_0(n) = 1/3*(SUM_i X(n,i,i))**2
     G_1(n) = 1/2*SUM_i,j (X(n,i,j)+X(n,j,i))**2
     G_2(n) = 1/3*SUM_i,j (X(n,i,i)-X(n,j,j))**2

     I_par(n)  = VOLUME*( 15*G_0(n) + 6*(G_1(n) + G_2(n)) )
     I_perp(n) = VOLUME*9/2*( G_1(n) + G_2(n) )
     I_tot(n)  = I_par(n) + I_perp(n)

  WHERE X(n,i,j) IS THE i,j-th COMPONENT OF THE RAMAN TENSOR
  IN THE BASIS OF NORMAL MODE n

  ALL VALUES ARE NORMALIZED TO THE MOST INTENSE PEAK


  INTENSITIES  DO NOT TAKE INTO ACCOUNT TEMPERATURE OR
  FREQUENCY OF THE INCOMING LASER, YOU CAN SET THESE PARAMETERS
  BY INPUT USING THE RAMEXP KEYWORD


 REFERENCES TO BE QUOTED FOR RAMAN INTENSITIES:

 L.MASCHIO, B.KIRTMAN, M.RERAT, R.ORLANDO and R.DOVESI, JCP 139, 161101 (2013)
 L.MASCHIO, B.KIRTMAN, M.RERAT, R.ORLANDO and R.DOVESI, JCP 139, 161102 (2013)

  --
  POLYCRYSTALLINE ISOTROPIC INTENSITIES (ARBITRARY UNITS)

    MODES    FREQUENCIES           I_tot     I_par    I_perp
  ----------------------------------------------------------------

  --
  SINGLE CRYSTAL DIRECTIONAL INTENSITIES (ARBITRARY UNITS)

    MODES    FREQUENCIES          I_xx    I_xy    I_xz    I_yy    I_yz    I_zz
  ----------------------------------------------------------------------------

 <RAMAN><RAMAN><RAMAN><RAMAN><RAMAN><RAMAN><RAMAN><RAMAN><RAMAN><RAMAN><RAMAN>
 <RAMAN><RAMAN><RAMAN><RAMAN><RAMAN><RAMAN><RAMAN><RAMAN><RAMAN><RAMAN><RAMAN>


 NORMAL MODES NORMALIZED TO CLASSICAL AMPLITUDES

 FREQ(CM**-1)      0.00      0.00      0.00    711.30    711.30    711.30

 AT.   1 O  X     0.1582    0.0000    0.0000    0.0000    0.0797    0.0000
            Y     0.0000    0.1582    0.0000    0.0797    0.0000    0.0000
            Z     0.0000    0.0000    0.1582    0.0000    0.0000    0.0797
 AT.   2 MG X     0.1582    0.0000    0.0000    0.0000   -0.0531    0.0000
            Y     0.0000    0.1582    0.0000   -0.0531    0.0000    0.0000
            Z     0.0000    0.0000    0.1582    0.0000    0.0000   -0.0531

 *******************************************************************************

 VIBRATIONAL TEMPERATURES (K) [MODE NUMBER;IRREP]

 TO MODES
  1023.4 [   4;Fu ]  1023.4 [   5;Fu ]  1023.4 [   6;Fu ]

 *******************************************************************************

 HARMONIC VIBRATIONAL CONTRIBUTIONS TO THERMODYNAMIC FUNCTIONS AT GIVEN
 TEMPERATURE AND PRESSURE:

 (EL = ELECTRONIC ENERGY
  E0 = ZERO-POINT ENERGY
  ET = THERMAL CONTRIBUTION TO THE VIBRATIONAL ENERGY
  PV = PRESSURE * VOLUME
  TS = TEMPERATURE * ENTROPY)

                          AU/CELL             EV/CELL                 KJ/MOL
 EL            :    -271.259620683598   -7381.349539359943     -712192.03373873
 E0            :       0.004861375245       0.132284745654          12.76353891


 *******************************************************************************

 THERMODYNAMIC FUNCTIONS WITH VIBRATIONAL CONTRIBUTIONS

 AT (T =  298.15 K, P =   0.10132500E+00 MPA):

                          AU/CELL             EV/CELL                 KJ/MOL
 ET            :       0.000324590673       0.008832561261           0.85221269
 PV            :       0.000000340544       0.000009266680           0.00089410
 TS            :       0.000417610425       0.011363757382           1.09643602
 ET+PV-TS      :      -0.000092679207      -0.002521929440          -0.24332922
 EL+E0+ET+PV-TS:    -271.254851987559   -7381.219776543730     -712179.51352904

 OTHER THERMODYNAMIC FUNCTIONS:

                      mHARTREE/(CELL*K)     mEV/(CELL*K)              J/(MOL*K)
 ENTROPY       :       0.001400672228       0.038114229018           3.67746442
 HEAT CAPACITY :       0.003861655919       0.105080999777          10.13877619

 *******************************************************************************
 TTTTTTTTTTTTTTTTTTTTTTTTTTTTTT END         TELAPSE     3056.68 TCPU     3034.78
 EEEEEEEEEE TERMINATION  DATE 27 04 2019 TIME 19:15:28.9
